 # Fcc Al oriented X=[11-2] Y=[111] Z=[1-10].
 
       34560  atoms
           2  atom types
 
      0.000000000000      99.174334998196  xlo xhi
      0.000000000000     112.202951675025  ylo yhi
      0.000000000000      51.532496107119  zlo zhi
 
Masses
 
            1   26.98153860             # Al
            2   65.38000000             # Zn
 
Atoms # atomic
 
         1    1        0.000000000000       0.000000000000       0.000000000000
         2    1        3.305811166607       4.675122986459       0.000000000000
         3    1        1.652905583303       2.337561493230       0.000000000000
         4    1        4.132263958258       2.337561493230       1.431458225198
         5    1        0.826452791652       4.675122986459       1.431458225198
         6    1        2.479358374955       0.000000000000       1.431458225198
         7    1        4.958716749910       0.000000000000       0.000000000000
         8    1        8.264527916516       4.675122986459       0.000000000000
         9    1        6.611622333213       2.337561493230       0.000000000000
        10    1        9.090980708168       2.337561493230       1.431458225198
        11    1        5.785169541561       4.675122986459       1.431458225198
        12    1        7.438075124865       0.000000000000       1.431458225198
        13    1        9.917433499820       0.000000000000       0.000000000000
        14    1       13.223244666426       4.675122986459       0.000000000000
        15    1       11.570339083123       2.337561493230       0.000000000000
        16    1       14.049697458078       2.337561493230       1.431458225198
        17    1       10.743886291471       4.675122986459       1.431458225198
        18    1       12.396791874774       0.000000000000       1.431458225198
        19    1       14.876150249729       0.000000000000       0.000000000000
        20    1       18.181961416336       4.675122986459       0.000000000000
        21    1       16.529055833033       2.337561493230       0.000000000000
        22    1       19.008414207987       2.337561493230       1.431458225198
        23    1       15.702603041381       4.675122986459       1.431458225198
        24    1       17.355508624684       0.000000000000       1.431458225198
        25    1       19.834866999639       0.000000000000       0.000000000000
        26    1       23.140678166246       4.675122986459       0.000000000000
        27    1       21.487772582942       2.337561493230       0.000000000000
        28    1       23.967130957897       2.337561493230       1.431458225198
        29    1       20.661319791291       4.675122986459       1.431458225198
        30    1       22.314225374594       0.000000000000       1.431458225198
        31    1       24.793583749549       0.000000000000       0.000000000000
        32    1       28.099394916155       4.675122986459       0.000000000000
        33    1       26.446489332852       2.337561493230       0.000000000000
        34    1       28.925847707807       2.337561493230       1.431458225198
        35    1       25.620036541201       4.675122986459       1.431458225198
        36    1       27.272942124504       0.000000000000       1.431458225198
        37    1       29.752300499459       0.000000000000       0.000000000000
        38    1       33.058111666065       4.675122986459       0.000000000000
        39    1       31.405206082762       2.337561493230       0.000000000000
        40    1       33.884564457717       2.337561493230       1.431458225198
        41    1       30.578753291110       4.675122986459       1.431458225198
        42    1       32.231658874414       0.000000000000       1.431458225198
        43    1       34.711017249368       0.000000000000       0.000000000000
        44    1       38.016828415975       4.675122986459       0.000000000000
        45    1       36.363922832672       2.337561493230       0.000000000000
        46    1       38.843281207627       2.337561493230       1.431458225198
        47    1       35.537470041020       4.675122986459       1.431458225198
        48    1       37.190375624323       0.000000000000       1.431458225198
        49    1       39.669733999278       0.000000000000       0.000000000000
        50    1       42.975545165885       4.675122986459       0.000000000000
        51    1       41.322639582581       2.337561493230       0.000000000000
        52    1       43.801997957536       2.337561493230       1.431458225198
        53    1       40.496186790930       4.675122986459       1.431458225198
        54    1       42.149092374233       0.000000000000       1.431458225198
        55    1       44.628450749188       0.000000000000       0.000000000000
        56    1       47.934261915795       4.675122986459       0.000000000000
        57    1       46.281356332491       2.337561493230       0.000000000000
        58    1       48.760714707446       2.337561493230       1.431458225198
        59    1       45.454903540840       4.675122986459       1.431458225198
        60    1       47.107809124143       0.000000000000       1.431458225198
        61    1       49.587167499098       0.000000000000       0.000000000000
        62    1       52.892978665704       4.675122986459       0.000000000000
        63    1       51.240073082401       2.337561493230       0.000000000000
        64    1       53.719431457356       2.337561493230       1.431458225198
        65    1       50.413620290749       4.675122986459       1.431458225198
        66    1       52.066525874053       0.000000000000       1.431458225198
        67    1       54.545884249008       0.000000000000       0.000000000000
        68    1       57.851695415614       4.675122986459       0.000000000000
        69    1       56.198789832311       2.337561493230       0.000000000000
        70    1       58.678148207266       2.337561493230       1.431458225198
        71    1       55.372337040659       4.675122986459       1.431458225198
        72    1       57.025242623962       0.000000000000       1.431458225198
        73    1       59.504600998917       0.000000000000       0.000000000000
        74    1       62.810412165524       4.675122986459       0.000000000000
        75    1       61.157506582221       2.337561493230       0.000000000000
        76    1       63.636864957175       2.337561493230       1.431458225198
        77    1       60.331053790569       4.675122986459       1.431458225198
        78    1       61.983959373872       0.000000000000       1.431458225198
        79    1       64.463317748827       0.000000000000       0.000000000000
        80    1       67.769128915434       4.675122986459       0.000000000000
        81    1       66.116223332130       2.337561493230       0.000000000000
        82    1       68.595581707085       2.337561493230       1.431458225198
        83    1       65.289770540479       4.675122986459       1.431458225198
        84    1       66.942676123782       0.000000000000       1.431458225198
        85    1       69.422034498737       0.000000000000       0.000000000000
        86    1       72.727845665343       4.675122986459       0.000000000000
        87    1       71.074940082040       2.337561493230       0.000000000000
        88    1       73.554298456995       2.337561493230       1.431458225198
        89    1       70.248487290389       4.675122986459       1.431458225198
        90    1       71.901392873692       0.000000000000       1.431458225198
        91    1       74.380751248647       0.000000000000       0.000000000000
        92    1       77.686562415253       4.675122986459       0.000000000000
        93    1       76.033656831950       2.337561493230       0.000000000000
        94    1       78.513015206905       2.337561493230       1.431458225198
        95    1       75.207204040298       4.675122986459       1.431458225198
        96    1       76.860109623602       0.000000000000       1.431458225198
        97    1       79.339467998556       0.000000000000       0.000000000000
        98    1       82.645279165163       4.675122986459       0.000000000000
        99    1       80.992373581860       2.337561493230       0.000000000000
       100    1       83.471731956815       2.337561493230       1.431458225198
       101    1       80.165920790208       4.675122986459       1.431458225198
       102    1       81.818826373511       0.000000000000       1.431458225198
       103    1       84.298184748466       0.000000000000       0.000000000000
       104    1       87.603995915073       4.675122986459       0.000000000000
       105    1       85.951090331769       2.337561493230       0.000000000000
       106    1       88.430448706724       2.337561493230       1.431458225198
       107    1       85.124637540118       4.675122986459       1.431458225198
       108    1       86.777543123421       0.000000000000       1.431458225198
       109    1       89.256901498376       0.000000000000       0.000000000000
       110    1       92.562712664983       4.675122986459       0.000000000000
       111    1       90.909807081679       2.337561493230       0.000000000000
       112    1       93.389165456634       2.337561493230       1.431458225198
       113    1       90.083354290028       4.675122986459       1.431458225198
       114    1       91.736259873331       0.000000000000       1.431458225198
       115    1       94.215618248286       0.000000000000       0.000000000000
       116    1       97.521429414892       4.675122986459       0.000000000000
       117    1       95.868523831589       2.337561493230       0.000000000000
       118    1       98.347882206544       2.337561493230       1.431458225198
       119    1       95.042071039937       4.675122986459       1.431458225198
       120    1       96.694976623241       0.000000000000       1.431458225198
       121    1        0.000000000000       7.012684479689       0.000000000000
       122    1        3.305811166607      11.687807466148       0.000000000000
       123    1        1.652905583303       9.350245972919       0.000000000000
       124    1        4.132263958258       9.350245972919       1.431458225198
       125    1        0.826452791652      11.687807466148       1.431458225198
       126    1        2.479358374955       7.012684479689       1.431458225198
       127    1        4.958716749910       7.012684479689       0.000000000000
       128    1        8.264527916516      11.687807466148       0.000000000000
       129    1        6.611622333213       9.350245972919       0.000000000000
       130    1        9.090980708168       9.350245972919       1.431458225198
       131    1        5.785169541561      11.687807466148       1.431458225198
       132    1        7.438075124865       7.012684479689       1.431458225198
       133    1        9.917433499820       7.012684479689       0.000000000000
       134    1       13.223244666426      11.687807466148       0.000000000000
       135    1       11.570339083123       9.350245972919       0.000000000000
       136    1       14.049697458078       9.350245972919       1.431458225198
       137    1       10.743886291471      11.687807466148       1.431458225198
       138    1       12.396791874774       7.012684479689       1.431458225198
       139    1       14.876150249729       7.012684479689       0.000000000000
       140    1       18.181961416336      11.687807466148       0.000000000000
       141    1       16.529055833033       9.350245972919       0.000000000000
       142    1       19.008414207987       9.350245972919       1.431458225198
       143    1       15.702603041381      11.687807466148       1.431458225198
       144    1       17.355508624684       7.012684479689       1.431458225198
       145    1       19.834866999639       7.012684479689       0.000000000000
       146    1       23.140678166246      11.687807466148       0.000000000000
       147    1       21.487772582942       9.350245972919       0.000000000000
       148    1       23.967130957897       9.350245972919       1.431458225198
       149    1       20.661319791291      11.687807466148       1.431458225198
       150    1       22.314225374594       7.012684479689       1.431458225198
       151    1       24.793583749549       7.012684479689       0.000000000000
       152    1       28.099394916155      11.687807466148       0.000000000000
       153    1       26.446489332852       9.350245972919       0.000000000000
       154    1       28.925847707807       9.350245972919       1.431458225198
       155    1       25.620036541201      11.687807466148       1.431458225198
       156    1       27.272942124504       7.012684479689       1.431458225198
       157    1       29.752300499459       7.012684479689       0.000000000000
       158    1       33.058111666065      11.687807466148       0.000000000000
       159    1       31.405206082762       9.350245972919       0.000000000000
       160    1       33.884564457717       9.350245972919       1.431458225198
       161    1       30.578753291110      11.687807466148       1.431458225198
       162    1       32.231658874414       7.012684479689       1.431458225198
       163    1       34.711017249368       7.012684479689       0.000000000000
       164    2       38.016828415975      11.687807466148       0.000000000000
       165    1       36.363922832672       9.350245972919       0.000000000000
       166    1       38.843281207627       9.350245972919       1.431458225198
       167    1       35.537470041020      11.687807466148       1.431458225198
       168    1       37.190375624323       7.012684479689       1.431458225198
       169    1       39.669733999278       7.012684479689       0.000000000000
       170    1       42.975545165885      11.687807466148       0.000000000000
       171    1       41.322639582581       9.350245972919       0.000000000000
       172    1       43.801997957536       9.350245972919       1.431458225198
       173    1       40.496186790930      11.687807466148       1.431458225198
       174    1       42.149092374233       7.012684479689       1.431458225198
       175    1       44.628450749188       7.012684479689       0.000000000000
       176    1       47.934261915795      11.687807466148       0.000000000000
       177    1       46.281356332491       9.350245972919       0.000000000000
       178    1       48.760714707446       9.350245972919       1.431458225198
       179    1       45.454903540840      11.687807466148       1.431458225198
       180    1       47.107809124143       7.012684479689       1.431458225198
       181    1       49.587167499098       7.012684479689       0.000000000000
       182    1       52.892978665704      11.687807466148       0.000000000000
       183    1       51.240073082401       9.350245972919       0.000000000000
       184    1       53.719431457356       9.350245972919       1.431458225198
       185    2       50.413620290749      11.687807466148       1.431458225198
       186    1       52.066525874053       7.012684479689       1.431458225198
       187    1       54.545884249008       7.012684479689       0.000000000000
       188    1       57.851695415614      11.687807466148       0.000000000000
       189    1       56.198789832311       9.350245972919       0.000000000000
       190    1       58.678148207266       9.350245972919       1.431458225198
       191    1       55.372337040659      11.687807466148       1.431458225198
       192    1       57.025242623962       7.012684479689       1.431458225198
       193    1       59.504600998917       7.012684479689       0.000000000000
       194    1       62.810412165524      11.687807466148       0.000000000000
       195    1       61.157506582221       9.350245972919       0.000000000000
       196    1       63.636864957175       9.350245972919       1.431458225198
       197    1       60.331053790569      11.687807466148       1.431458225198
       198    1       61.983959373872       7.012684479689       1.431458225198
       199    1       64.463317748827       7.012684479689       0.000000000000
       200    1       67.769128915434      11.687807466148       0.000000000000
       201    1       66.116223332130       9.350245972919       0.000000000000
       202    1       68.595581707085       9.350245972919       1.431458225198
       203    1       65.289770540479      11.687807466148       1.431458225198
       204    1       66.942676123782       7.012684479689       1.431458225198
       205    1       69.422034498737       7.012684479689       0.000000000000
       206    1       72.727845665343      11.687807466148       0.000000000000
       207    1       71.074940082040       9.350245972919       0.000000000000
       208    1       73.554298456995       9.350245972919       1.431458225198
       209    1       70.248487290389      11.687807466148       1.431458225198
       210    1       71.901392873692       7.012684479689       1.431458225198
       211    1       74.380751248647       7.012684479689       0.000000000000
       212    1       77.686562415253      11.687807466148       0.000000000000
       213    1       76.033656831950       9.350245972919       0.000000000000
       214    1       78.513015206905       9.350245972919       1.431458225198
       215    1       75.207204040298      11.687807466148       1.431458225198
       216    1       76.860109623602       7.012684479689       1.431458225198
       217    1       79.339467998556       7.012684479689       0.000000000000
       218    1       82.645279165163      11.687807466148       0.000000000000
       219    1       80.992373581860       9.350245972919       0.000000000000
       220    1       83.471731956815       9.350245972919       1.431458225198
       221    1       80.165920790208      11.687807466148       1.431458225198
       222    1       81.818826373511       7.012684479689       1.431458225198
       223    1       84.298184748466       7.012684479689       0.000000000000
       224    1       87.603995915073      11.687807466148       0.000000000000
       225    1       85.951090331769       9.350245972919       0.000000000000
       226    1       88.430448706724       9.350245972919       1.431458225198
       227    1       85.124637540118      11.687807466148       1.431458225198
       228    1       86.777543123421       7.012684479689       1.431458225198
       229    1       89.256901498376       7.012684479689       0.000000000000
       230    1       92.562712664983      11.687807466148       0.000000000000
       231    1       90.909807081679       9.350245972919       0.000000000000
       232    1       93.389165456634       9.350245972919       1.431458225198
       233    2       90.083354290028      11.687807466148       1.431458225198
       234    1       91.736259873331       7.012684479689       1.431458225198
       235    1       94.215618248286       7.012684479689       0.000000000000
       236    1       97.521429414892      11.687807466148       0.000000000000
       237    1       95.868523831589       9.350245972919       0.000000000000
       238    1       98.347882206544       9.350245972919       1.431458225198
       239    1       95.042071039937      11.687807466148       1.431458225198
       240    1       96.694976623241       7.012684479689       1.431458225198
       241    1        0.000000000000      14.025368959378       0.000000000000
       242    1        3.305811166607      18.700491945837       0.000000000000
       243    1        1.652905583303      16.362930452608       0.000000000000
       244    1        4.132263958258      16.362930452608       1.431458225198
       245    1        0.826452791652      18.700491945837       1.431458225198
       246    1        2.479358374955      14.025368959378       1.431458225198
       247    1        4.958716749910      14.025368959378       0.000000000000
       248    1        8.264527916516      18.700491945837       0.000000000000
       249    1        6.611622333213      16.362930452608       0.000000000000
       250    1        9.090980708168      16.362930452608       1.431458225198
       251    1        5.785169541561      18.700491945837       1.431458225198
       252    1        7.438075124865      14.025368959378       1.431458225198
       253    1        9.917433499820      14.025368959378       0.000000000000
       254    1       13.223244666426      18.700491945837       0.000000000000
       255    1       11.570339083123      16.362930452608       0.000000000000
       256    1       14.049697458078      16.362930452608       1.431458225198
       257    1       10.743886291471      18.700491945837       1.431458225198
       258    1       12.396791874774      14.025368959378       1.431458225198
       259    1       14.876150249729      14.025368959378       0.000000000000
       260    1       18.181961416336      18.700491945837       0.000000000000
       261    1       16.529055833033      16.362930452608       0.000000000000
       262    1       19.008414207987      16.362930452608       1.431458225198
       263    1       15.702603041381      18.700491945837       1.431458225198
       264    1       17.355508624684      14.025368959378       1.431458225198
       265    1       19.834866999639      14.025368959378       0.000000000000
       266    1       23.140678166246      18.700491945837       0.000000000000
       267    1       21.487772582942      16.362930452608       0.000000000000
       268    1       23.967130957897      16.362930452608       1.431458225198
       269    1       20.661319791291      18.700491945837       1.431458225198
       270    1       22.314225374594      14.025368959378       1.431458225198
       271    1       24.793583749549      14.025368959378       0.000000000000
       272    1       28.099394916155      18.700491945837       0.000000000000
       273    1       26.446489332852      16.362930452608       0.000000000000
       274    1       28.925847707807      16.362930452608       1.431458225198
       275    1       25.620036541201      18.700491945837       1.431458225198
       276    1       27.272942124504      14.025368959378       1.431458225198
       277    1       29.752300499459      14.025368959378       0.000000000000
       278    1       33.058111666065      18.700491945837       0.000000000000
       279    1       31.405206082762      16.362930452608       0.000000000000
       280    1       33.884564457717      16.362930452608       1.431458225198
       281    1       30.578753291110      18.700491945837       1.431458225198
       282    1       32.231658874414      14.025368959378       1.431458225198
       283    2       34.711017249368      14.025368959378       0.000000000000
       284    2       38.016828415975      18.700491945837       0.000000000000
       285    1       36.363922832672      16.362930452608       0.000000000000
       286    1       38.843281207627      16.362930452608       1.431458225198
       287    1       35.537470041020      18.700491945837       1.431458225198
       288    1       37.190375624323      14.025368959378       1.431458225198
       289    1       39.669733999278      14.025368959378       0.000000000000
       290    1       42.975545165885      18.700491945837       0.000000000000
       291    1       41.322639582581      16.362930452608       0.000000000000
       292    1       43.801997957536      16.362930452608       1.431458225198
       293    1       40.496186790930      18.700491945837       1.431458225198
       294    1       42.149092374233      14.025368959378       1.431458225198
       295    1       44.628450749188      14.025368959378       0.000000000000
       296    1       47.934261915795      18.700491945837       0.000000000000
       297    1       46.281356332491      16.362930452608       0.000000000000
       298    1       48.760714707446      16.362930452608       1.431458225198
       299    1       45.454903540840      18.700491945837       1.431458225198
       300    1       47.107809124143      14.025368959378       1.431458225198
       301    1       49.587167499098      14.025368959378       0.000000000000
       302    1       52.892978665704      18.700491945837       0.000000000000
       303    1       51.240073082401      16.362930452608       0.000000000000
       304    1       53.719431457356      16.362930452608       1.431458225198
       305    1       50.413620290749      18.700491945837       1.431458225198
       306    1       52.066525874053      14.025368959378       1.431458225198
       307    1       54.545884249008      14.025368959378       0.000000000000
       308    1       57.851695415614      18.700491945837       0.000000000000
       309    1       56.198789832311      16.362930452608       0.000000000000
       310    2       58.678148207266      16.362930452608       1.431458225198
       311    1       55.372337040659      18.700491945837       1.431458225198
       312    1       57.025242623962      14.025368959378       1.431458225198
       313    1       59.504600998917      14.025368959378       0.000000000000
       314    1       62.810412165524      18.700491945837       0.000000000000
       315    1       61.157506582221      16.362930452608       0.000000000000
       316    1       63.636864957175      16.362930452608       1.431458225198
       317    1       60.331053790569      18.700491945837       1.431458225198
       318    1       61.983959373872      14.025368959378       1.431458225198
       319    1       64.463317748827      14.025368959378       0.000000000000
       320    1       67.769128915434      18.700491945837       0.000000000000
       321    1       66.116223332130      16.362930452608       0.000000000000
       322    1       68.595581707085      16.362930452608       1.431458225198
       323    1       65.289770540479      18.700491945837       1.431458225198
       324    1       66.942676123782      14.025368959378       1.431458225198
       325    1       69.422034498737      14.025368959378       0.000000000000
       326    1       72.727845665343      18.700491945837       0.000000000000
       327    1       71.074940082040      16.362930452608       0.000000000000
       328    1       73.554298456995      16.362930452608       1.431458225198
       329    1       70.248487290389      18.700491945837       1.431458225198
       330    1       71.901392873692      14.025368959378       1.431458225198
       331    1       74.380751248647      14.025368959378       0.000000000000
       332    1       77.686562415253      18.700491945837       0.000000000000
       333    1       76.033656831950      16.362930452608       0.000000000000
       334    1       78.513015206905      16.362930452608       1.431458225198
       335    1       75.207204040298      18.700491945837       1.431458225198
       336    1       76.860109623602      14.025368959378       1.431458225198
       337    1       79.339467998556      14.025368959378       0.000000000000
       338    1       82.645279165163      18.700491945837       0.000000000000
       339    1       80.992373581860      16.362930452608       0.000000000000
       340    1       83.471731956815      16.362930452608       1.431458225198
       341    1       80.165920790208      18.700491945837       1.431458225198
       342    1       81.818826373511      14.025368959378       1.431458225198
       343    1       84.298184748466      14.025368959378       0.000000000000
       344    1       87.603995915073      18.700491945837       0.000000000000
       345    1       85.951090331769      16.362930452608       0.000000000000
       346    2       88.430448706724      16.362930452608       1.431458225198
       347    1       85.124637540118      18.700491945837       1.431458225198
       348    1       86.777543123421      14.025368959378       1.431458225198
       349    1       89.256901498376      14.025368959378       0.000000000000
       350    1       92.562712664983      18.700491945837       0.000000000000
       351    1       90.909807081679      16.362930452608       0.000000000000
       352    2       93.389165456634      16.362930452608       1.431458225198
       353    1       90.083354290028      18.700491945837       1.431458225198
       354    1       91.736259873331      14.025368959378       1.431458225198
       355    1       94.215618248286      14.025368959378       0.000000000000
       356    1       97.521429414892      18.700491945837       0.000000000000
       357    1       95.868523831589      16.362930452608       0.000000000000
       358    1       98.347882206544      16.362930452608       1.431458225198
       359    1       95.042071039937      18.700491945837       1.431458225198
       360    1       96.694976623241      14.025368959378       1.431458225198
       361    1        0.000000000000      21.038053439067       0.000000000000
       362    1        3.305811166607      25.713176425526       0.000000000000
       363    1        1.652905583303      23.375614932297       0.000000000000
       364    1        4.132263958258      23.375614932297       1.431458225198
       365    1        0.826452791652      25.713176425526       1.431458225198
       366    1        2.479358374955      21.038053439067       1.431458225198
       367    1        4.958716749910      21.038053439067       0.000000000000
       368    1        8.264527916516      25.713176425526       0.000000000000
       369    1        6.611622333213      23.375614932297       0.000000000000
       370    1        9.090980708168      23.375614932297       1.431458225198