 # Fcc Al oriented X=[11-2] Y=[111] Z=[1-10].
 
       34560  atoms
           2  atom types
 
      0.000000000000      98.910740145138  xlo xhi
      0.000000000000     111.904728142092  ylo yhi
      0.000000000000      51.395528203686  zlo zhi
 
Masses
 
            1   26.98153860             # Al
            2   63.54600000             # Cu
 
Atoms # atomic
 
         1    1        0.000000000000       0.000000000000       0.000000000000
         2    1        3.297024671505       4.662697005920       0.000000000000
         3    2        1.648512335752       2.331348502960       0.000000000000
         4    1        4.121280839381       2.331348502960       1.427653561214
         5    2        0.824256167876       4.662697005920       1.427653561214
         6    1        2.472768503628       0.000000000000       1.427653561214
         7    1        4.945537007257       0.000000000000       0.000000000000
         8    1        8.242561678761       4.662697005920       0.000000000000
         9    1        6.594049343009       2.331348502960       0.000000000000
        10    1        9.066817846638       2.331348502960       1.427653561214
        11    1        5.769793175133       4.662697005920       1.427653561214
        12    1        7.418305510885       0.000000000000       1.427653561214
        13    1        9.891074014514       0.000000000000       0.000000000000
        14    1       13.188098686018       4.662697005920       0.000000000000
        15    2       11.539586350266       2.331348502960       0.000000000000
        16    1       14.012354853895       2.331348502960       1.427653561214
        17    1       10.715330182390       4.662697005920       1.427653561214
        18    1       12.363842518142       0.000000000000       1.427653561214
        19    1       14.836611021771       0.000000000000       0.000000000000
        20    1       18.133635693275       4.662697005920       0.000000000000
        21    2       16.485123357523       2.331348502960       0.000000000000
        22    1       18.957891861151       2.331348502960       1.427653561214
        23    1       15.660867189647       4.662697005920       1.427653561214
        24    1       17.309379525399       0.000000000000       1.427653561214
        25    1       19.782148029028       0.000000000000       0.000000000000
        26    1       23.079172700532       4.662697005920       0.000000000000
        27    1       21.430660364780       2.331348502960       0.000000000000
        28    1       23.903428868408       2.331348502960       1.427653561214
        29    1       20.606404196904       4.662697005920       1.427653561214
        30    1       22.254916532656       0.000000000000       1.427653561214
        31    1       24.727685036284       0.000000000000       0.000000000000
        32    1       28.024709707789       4.662697005920       0.000000000000
        33    1       26.376197372037       2.331348502960       0.000000000000
        34    1       28.848965875665       2.331348502960       1.427653561214
        35    1       25.551941204161       4.662697005920       1.427653561214
        36    1       27.200453539913       0.000000000000       1.427653561214
        37    1       29.673222043541       0.000000000000       0.000000000000
        38    1       32.970246715046       4.662697005920       0.000000000000
        39    1       31.321734379294       2.331348502960       0.000000000000
        40    1       33.794502882922       2.331348502960       1.427653561214
        41    1       30.497478211418       4.662697005920       1.427653561214
        42    1       32.145990547170       0.000000000000       1.427653561214
        43    1       34.618759050798       0.000000000000       0.000000000000
        44    1       37.915783722303       4.662697005920       0.000000000000
        45    1       36.267271386551       2.331348502960       0.000000000000
        46    1       38.740039890179       2.331348502960       1.427653561214
        47    1       35.443015218674       4.662697005920       1.427653561214
        48    1       37.091527554427       0.000000000000       1.427653561214
        49    1       39.564296058055       0.000000000000       0.000000000000
        50    1       42.861320729560       4.662697005920       0.000000000000
        51    1       41.212808393807       2.331348502960       0.000000000000
        52    1       43.685576897436       2.331348502960       1.427653561214
        53    1       40.388552225931       4.662697005920       1.427653561214
        54    1       42.037064561684       0.000000000000       1.427653561214
        55    1       44.509833065312       0.000000000000       0.000000000000
        56    1       47.806857736817       4.662697005920       0.000000000000
        57    1       46.158345401064       2.331348502960       0.000000000000
        58    1       48.631113904693       2.331348502960       1.427653561214
        59    1       45.334089233188       4.662697005920       1.427653561214
        60    1       46.982601568940       0.000000000000       1.427653561214
        61    1       49.455370072569       0.000000000000       0.000000000000
        62    1       52.752394744074       4.662697005920       0.000000000000
        63    1       51.103882408321       2.331348502960       0.000000000000
        64    1       53.576650911950       2.331348502960       1.427653561214
        65    1       50.279626240445       4.662697005920       1.427653561214
        66    1       51.928138576197       0.000000000000       1.427653561214
        67    1       54.400907079826       0.000000000000       0.000000000000
        68    1       57.697931751330       4.662697005920       0.000000000000
        69    1       56.049419415578       2.331348502960       0.000000000000
        70    1       58.522187919207       2.331348502960       1.427653561214
        71    1       55.225163247702       4.662697005920       1.427653561214
        72    1       56.873675583454       0.000000000000       1.427653561214
        73    1       59.346444087083       0.000000000000       0.000000000000
        74    1       62.643468758587       4.662697005920       0.000000000000
        75    1       60.994956422835       2.331348502960       0.000000000000
        76    2       63.467724926463       2.331348502960       1.427653561214
        77    1       60.170700254959       4.662697005920       1.427653561214
        78    1       61.819212590711       0.000000000000       1.427653561214
        79    1       64.291981094340       0.000000000000       0.000000000000
        80    1       67.589005765844       4.662697005920       0.000000000000
        81    1       65.940493430092       2.331348502960       0.000000000000
        82    1       68.413261933720       2.331348502960       1.427653561214
        83    1       65.116237262216       4.662697005920       1.427653561214
        84    1       66.764749597968       0.000000000000       1.427653561214
        85    1       69.237518101596       0.000000000000       0.000000000000
        86    1       72.534542773101       4.662697005920       0.000000000000
        87    1       70.886030437349       2.331348502960       0.000000000000
        88    1       73.358798940977       2.331348502960       1.427653561214
        89    1       70.061774269473       4.662697005920       1.427653561214
        90    1       71.710286605225       0.000000000000       1.427653561214
        91    1       74.183055108853       0.000000000000       0.000000000000
        92    1       77.480079780358       4.662697005920       0.000000000000
        93    1       75.831567444606       2.331348502960       0.000000000000
        94    1       78.304335948234       2.331348502960       1.427653561214
        95    1       75.007311276730       4.662697005920       1.427653561214
        96    1       76.655823612482       0.000000000000       1.427653561214
        97    1       79.128592116110       0.000000000000       0.000000000000
        98    1       82.425616787615       4.662697005920       0.000000000000
        99    1       80.777104451863       2.331348502960       0.000000000000
       100    1       83.249872955491       2.331348502960       1.427653561214
       101    1       79.952848283986       4.662697005920       1.427653561214
       102    1       81.601360619739       0.000000000000       1.427653561214
       103    1       84.074129123367       0.000000000000       0.000000000000
       104    1       87.371153794872       4.662697005920       0.000000000000
       105    1       85.722641459119       2.331348502960       0.000000000000
       106    1       88.195409962748       2.331348502960       1.427653561214
       107    1       84.898385291243       4.662697005920       1.427653561214
       108    1       86.546897626996       0.000000000000       1.427653561214
       109    2       89.019666130624       0.000000000000       0.000000000000
       110    1       92.316690802129       4.662697005920       0.000000000000
       111    1       90.668178466376       2.331348502960       0.000000000000
       112    1       93.140946970005       2.331348502960       1.427653561214
       113    1       89.843922298500       4.662697005920       1.427653561214
       114    1       91.492434634253       0.000000000000       1.427653561214
       115    1       93.965203137881       0.000000000000       0.000000000000
       116    1       97.262227809386       4.662697005920       0.000000000000
       117    1       95.613715473633       2.331348502960       0.000000000000
       118    1       98.086483977262       2.331348502960       1.427653561214
       119    1       94.789459305757       4.662697005920       1.427653561214
       120    1       96.437971641509       0.000000000000       1.427653561214
       121    1        0.000000000000       6.994045508881       0.000000000000
       122    1        3.297024671505      11.656742514801       0.000000000000
       123    1        1.648512335752       9.325394011841       0.000000000000
       124    1        4.121280839381       9.325394011841       1.427653561214
       125    1        0.824256167876      11.656742514801       1.427653561214
       126    1        2.472768503628       6.994045508881       1.427653561214
       127    1        4.945537007257       6.994045508881       0.000000000000
       128    1        8.242561678761      11.656742514801       0.000000000000
       129    1        6.594049343009       9.325394011841       0.000000000000
       130    1        9.066817846638       9.325394011841       1.427653561214
       131    1        5.769793175133      11.656742514801       1.427653561214
       132    1        7.418305510885       6.994045508881       1.427653561214
       133    1        9.891074014514       6.994045508881       0.000000000000
       134    1       13.188098686018      11.656742514801       0.000000000000
       135    1       11.539586350266       9.325394011841       0.000000000000
       136    1       14.012354853895       9.325394011841       1.427653561214
       137    1       10.715330182390      11.656742514801       1.427653561214
       138    1       12.363842518142       6.994045508881       1.427653561214
       139    1       14.836611021771       6.994045508881       0.000000000000
       140    1       18.133635693275      11.656742514801       0.000000000000
       141    1       16.485123357523       9.325394011841       0.000000000000
       142    1       18.957891861151       9.325394011841       1.427653561214
       143    1       15.660867189647      11.656742514801       1.427653561214
       144    1       17.309379525399       6.994045508881       1.427653561214
       145    1       19.782148029028       6.994045508881       0.000000000000
       146    1       23.079172700532      11.656742514801       0.000000000000
       147    1       21.430660364780       9.325394011841       0.000000000000
       148    1       23.903428868408       9.325394011841       1.427653561214
       149    1       20.606404196904      11.656742514801       1.427653561214
       150    1       22.254916532656       6.994045508881       1.427653561214
       151    1       24.727685036284       6.994045508881       0.000000000000
       152    1       28.024709707789      11.656742514801       0.000000000000
       153    1       26.376197372037       9.325394011841       0.000000000000
       154    1       28.848965875665       9.325394011841       1.427653561214
       155    1       25.551941204161      11.656742514801       1.427653561214
       156    1       27.200453539913       6.994045508881       1.427653561214
       157    1       29.673222043541       6.994045508881       0.000000000000
       158    1       32.970246715046      11.656742514801       0.000000000000
       159    1       31.321734379294       9.325394011841       0.000000000000
       160    1       33.794502882922       9.325394011841       1.427653561214
       161    1       30.497478211418      11.656742514801       1.427653561214
       162    1       32.145990547170       6.994045508881       1.427653561214
       163    1       34.618759050798       6.994045508881       0.000000000000
       164    1       37.915783722303      11.656742514801       0.000000000000
       165    1       36.267271386551       9.325394011841       0.000000000000
       166    1       38.740039890179       9.325394011841       1.427653561214
       167    1       35.443015218674      11.656742514801       1.427653561214
       168    1       37.091527554427       6.994045508881       1.427653561214
       169    1       39.564296058055       6.994045508881       0.000000000000
       170    1       42.861320729560      11.656742514801       0.000000000000
       171    1       41.212808393807       9.325394011841       0.000000000000
       172    1       43.685576897436       9.325394011841       1.427653561214
       173    2       40.388552225931      11.656742514801       1.427653561214
       174    1       42.037064561684       6.994045508881       1.427653561214
       175    1       44.509833065312       6.994045508881       0.000000000000
       176    1       47.806857736817      11.656742514801       0.000000000000
       177    1       46.158345401064       9.325394011841       0.000000000000
       178    1       48.631113904693       9.325394011841       1.427653561214
       179    1       45.334089233188      11.656742514801       1.427653561214
       180    1       46.982601568940       6.994045508881       1.427653561214
       181    1       49.455370072569       6.994045508881       0.000000000000
       182    1       52.752394744074      11.656742514801       0.000000000000
       183    2       51.103882408321       9.325394011841       0.000000000000
       184    1       53.576650911950       9.325394011841       1.427653561214
       185    1       50.279626240445      11.656742514801       1.427653561214
       186    1       51.928138576197       6.994045508881       1.427653561214
       187    1       54.400907079826       6.994045508881       0.000000000000
       188    1       57.697931751330      11.656742514801       0.000000000000
       189    1       56.049419415578       9.325394011841       0.000000000000
       190    1       58.522187919207       9.325394011841       1.427653561214
       191    1       55.225163247702      11.656742514801       1.427653561214
       192    1       56.873675583454       6.994045508881       1.427653561214
       193    1       59.346444087083       6.994045508881       0.000000000000
       194    1       62.643468758587      11.656742514801       0.000000000000
       195    1       60.994956422835       9.325394011841       0.000000000000
       196    1       63.467724926463       9.325394011841       1.427653561214
       197    1       60.170700254959      11.656742514801       1.427653561214
       198    1       61.819212590711       6.994045508881       1.427653561214
       199    2       64.291981094340       6.994045508881       0.000000000000
       200    1       67.589005765844      11.656742514801       0.000000000000
       201    1       65.940493430092       9.325394011841       0.000000000000
       202    1       68.413261933720       9.325394011841       1.427653561214
       203    1       65.116237262216      11.656742514801       1.427653561214
       204    1       66.764749597968       6.994045508881       1.427653561214
       205    1       69.237518101596       6.994045508881       0.000000000000
       206    1       72.534542773101      11.656742514801       0.000000000000
       207    1       70.886030437349       9.325394011841       0.000000000000
       208    1       73.358798940977       9.325394011841       1.427653561214
       209    1       70.061774269473      11.656742514801       1.427653561214
       210    1       71.710286605225       6.994045508881       1.427653561214
       211    1       74.183055108853       6.994045508881       0.000000000000
       212    1       77.480079780358      11.656742514801       0.000000000000
       213    1       75.831567444606       9.325394011841       0.000000000000
       214    1       78.304335948234       9.325394011841       1.427653561214
       215    1       75.007311276730      11.656742514801       1.427653561214
       216    1       76.655823612482       6.994045508881       1.427653561214
       217    1       79.128592116110       6.994045508881       0.000000000000
       218    1       82.425616787615      11.656742514801       0.000000000000
       219    1       80.777104451863       9.325394011841       0.000000000000
       220    2       83.249872955491       9.325394011841       1.427653561214
       221    1       79.952848283986      11.656742514801       1.427653561214
       222    1       81.601360619739       6.994045508881       1.427653561214
       223    1       84.074129123367       6.994045508881       0.000000000000
       224    1       87.371153794872      11.656742514801       0.000000000000
       225    1       85.722641459119       9.325394011841       0.000000000000
       226    1       88.195409962748       9.325394011841       1.427653561214
       227    1       84.898385291243      11.656742514801       1.427653561214
       228    2       86.546897626996       6.994045508881       1.427653561214
       229    1       89.019666130624       6.994045508881       0.000000000000
       230    1       92.316690802129      11.656742514801       0.000000000000
       231    1       90.668178466376       9.325394011841       0.000000000000
       232    1       93.140946970005       9.325394011841       1.427653561214
       233    1       89.843922298500      11.656742514801       1.427653561214
       234    1       91.492434634253       6.994045508881       1.427653561214
       235    1       93.965203137881       6.994045508881       0.000000000000
       236    1       97.262227809386      11.656742514801       0.000000000000
       237    1       95.613715473633       9.325394011841       0.000000000000
       238    1       98.086483977262       9.325394011841       1.427653561214
       239    1       94.789459305757      11.656742514801       1.427653561214
       240    1       96.437971641509       6.994045508881       1.427653561214
       241    1        0.000000000000      13.988091017761       0.000000000000
       242    1        3.297024671505      18.650788023682       0.000000000000
       243    1        1.648512335752      16.319439520722       0.000000000000
       244    1        4.121280839381      16.319439520722       1.427653561214
       245    1        0.824256167876      18.650788023682       1.427653561214
       246    2        2.472768503628      13.988091017761       1.427653561214
       247    1        4.945537007257      13.988091017761       0.000000000000
       248    1        8.242561678761      18.650788023682       0.000000000000
       249    1        6.594049343009      16.319439520722       0.000000000000
       250    1        9.066817846638      16.319439520722       1.427653561214
       251    1        5.769793175133      18.650788023682       1.427653561214
       252    1        7.418305510885      13.988091017761       1.427653561214
       253    1        9.891074014514      13.988091017761       0.000000000000
       254    1       13.188098686018      18.650788023682       0.000000000000
       255    1       11.539586350266      16.319439520722       0.000000000000
       256    1       14.012354853895      16.319439520722       1.427653561214
       257    1       10.715330182390      18.650788023682       1.427653561214
       258    1       12.363842518142      13.988091017761       1.427653561214
       259    1       14.836611021771      13.988091017761       0.000000000000
       260    1       18.133635693275      18.650788023682       0.000000000000
       261    1       16.485123357523      16.319439520722       0.000000000000
       262    1       18.957891861151      16.319439520722       1.427653561214
       263    1       15.660867189647      18.650788023682       1.427653561214
       264    1       17.309379525399      13.988091017761       1.427653561214
       265    2       19.782148029028      13.988091017761       0.000000000000
       266    1       23.079172700532      18.650788023682       0.000000000000
       267    1       21.430660364780      16.319439520722       0.000000000000
       268    1       23.903428868408      16.319439520722       1.427653561214
       269    1       20.606404196904      18.650788023682       1.427653561214
       270    1       22.254916532656      13.988091017761       1.427653561214
       271    1       24.727685036284      13.988091017761       0.000000000000
       272    1       28.024709707789      18.650788023682       0.000000000000
       273    1       26.376197372037      16.319439520722       0.000000000000
       274    1       28.848965875665      16.319439520722       1.427653561214
       275    1       25.551941204161      18.650788023682       1.427653561214
       276    1       27.200453539913      13.988091017761       1.427653561214
       277    1       29.673222043541      13.988091017761       0.000000000000
       278    1       32.970246715046      18.650788023682       0.000000000000
       279    1       31.321734379294      16.319439520722       0.000000000000
       280    1       33.794502882922      16.319439520722       1.427653561214
       281    1       30.497478211418      18.650788023682       1.427653561214
       282    1       32.145990547170      13.988091017761       1.427653561214
       283    1       34.618759050798      13.988091017761       0.000000000000
       284    1       37.915783722303      18.650788023682       0.000000000000
       285    1       36.267271386551      16.319439520722       0.000000000000
       286    1       38.740039890179      16.319439520722       1.427653561214
       287    1       35.443015218674      18.650788023682       1.427653561214
       288    1       37.091527554427      13.988091017761       1.427653561214
       289    1       39.564296058055      13.988091017761       0.000000000000
       290    1       42.861320729560      18.650788023682       0.000000000000
       291    2       41.212808393807      16.319439520722       0.000000000000
       292    1       43.685576897436      16.319439520722       1.427653561214
       293    1       40.388552225931      18.650788023682       1.427653561214
       294    1       42.037064561684      13.988091017761       1.427653561214
       295    1       44.509833065312      13.988091017761       0.000000000000
       296    1       47.806857736817      18.650788023682       0.000000000000
       297    1       46.158345401064      16.319439520722       0.000000000000
       298    1       48.631113904693      16.319439520722       1.427653561214
       299    1       45.334089233188      18.650788023682       1.427653561214
       300    1       46.982601568940      13.988091017761       1.427653561214
       301    1       49.455370072569      13.988091017761       0.000000000000
       302    1       52.752394744074      18.650788023682       0.000000000000
       303    1       51.103882408321      16.319439520722       0.000000000000
       304    1       53.576650911950      16.319439520722       1.427653561214
       305    1       50.279626240445      18.650788023682       1.427653561214
       306    1       51.928138576197      13.988091017761       1.427653561214
       307    1       54.400907079826      13.988091017761       0.000000000000
       308    1       57.697931751330      18.650788023682       0.000000000000
       309    1       56.049419415578      16.319439520722       0.000000000000
       310    1       58.522187919207      16.319439520722       1.427653561214
       311    1       55.225163247702      18.650788023682       1.427653561214
       312    1       56.873675583454      13.988091017761       1.427653561214
       313    1       59.346444087083      13.988091017761       0.000000000000
       314    1       62.643468758587      18.650788023682       0.000000000000
       315    1       60.994956422835      16.319439520722       0.000000000000
       316    1       63.467724926463      16.319439520722       1.427653561214
       317    1       60.170700254959      18.650788023682       1.427653561214
       318    1       61.819212590711      13.988091017761       1.427653561214
       319    1       64.291981094340      13.988091017761       0.000000000000
       320    1       67.589005765844      18.650788023682       0.000000000000
       321    1       65.940493430092      16.319439520722       0.000000000000
       322    1       68.413261933720      16.319439520722       1.427653561214
       323    1       65.116237262216      18.650788023682       1.427653561214
       324    1       66.764749597968      13.988091017761       1.427653561214
       325    1       69.237518101596      13.988091017761       0.000000000000
       326    1       72.534542773101      18.650788023682       0.000000000000
       327    1       70.886030437349      16.319439520722       0.000000000000
       328    1       73.358798940977      16.319439520722       1.427653561214
       329    1       70.061774269473      18.650788023682       1.427653561214
       330    1       71.710286605225      13.988091017761       1.427653561214
       331    1       74.183055108853      13.988091017761       0.000000000000
       332    1       77.480079780358      18.650788023682       0.000000000000
       333    1       75.831567444606      16.319439520722       0.000000000000
       334    1       78.304335948234      16.319439520722       1.427653561214
       335    1       75.007311276730      18.650788023682       1.427653561214
       336    1       76.655823612482      13.988091017761       1.427653561214
       337    1       79.128592116110      13.988091017761       0.000000000000
       338    1       82.425616787615      18.650788023682       0.000000000000
       339    1       80.777104451863      16.319439520722       0.000000000000
       340    1       83.249872955491      16.319439520722       1.427653561214
       341    1       79.952848283986      18.650788023682       1.427653561214
       342    1       81.601360619739      13.988091017761       1.427653561214
       343    1       84.074129123367      13.988091017761       0.000000000000
       344    1       87.371153794872      18.650788023682       0.000000000000
       345    1       85.722641459119      16.319439520722       0.000000000000
       346    1       88.195409962748      16.319439520722       1.427653561214
       347    1       84.898385291243      18.650788023682       1.427653561214
       348    1       86.546897626996      13.988091017761       1.427653561214
       349    1       89.019666130624      13.988091017761       0.000000000000
       350    1       92.316690802129      18.650788023682       0.000000000000
       351    1       90.668178466376      16.319439520722       0.000000000000
       352    1       93.140946970005      16.319439520722       1.427653561214
       353    1       89.843922298500      18.650788023682       1.427653561214
       354    1       91.492434634253      13.988091017761       1.427653561214
       355    1       93.965203137881      13.988091017761       0.000000000000
       356    1       97.262227809386      18.650788023682       0.000000000000
       357    1       95.613715473633      16.319439520722       0.000000000000
       358    1       98.086483977262      16.319439520722       1.427653561214
       359    1       94.789459305757      18.650788023682       1.427653561214
       360    1       96.437971641509      13.988091017761       1.427653561214
       361    1        0.000000000000      20.982136526642       0.000000000000
       362    1        3.297024671505      25.644833532563       0.000000000000
       363    1        1.648512335752      23.313485029602       0.000000000000
       364    1        4.121280839381      23.313485029602       1.427653561214
       365    2        0.824256167876      25.644833532563       1.427653561214
       366    1        2.472768503628      20.982136526642       1.427653561214
       367    1        4.945537007257      20.982136526642       0.000000000000
       368    1        8.242561678761      25.644833532563       0.000000000000
       369    1        6.594049343009      23.313485029602       0.000000000000
       370    1        9.066817846638      23.313485029602       1.427653561214