 # Fcc Al oriented X=[11-2] Y=[111] Z=[1-10].
 
       34560  atoms
           2  atom types
 
      0.000000000000     100.277398869906  xlo xhi
      0.000000000000     113.450925985054  ylo yhi
      0.000000000000      52.105664908058  zlo zhi
 
Masses
 
            1   26.98153860             # Al
            2   24.30500000             # Mg
 
Atoms # atomic
 
         1    1        0.000000000000       0.000000000000       0.000000000000
         2    1        3.342579962330       4.727121916044       0.000000000000
         3    1        1.671289981165       2.363560958022       0.000000000000
         4    1        4.178224952913       2.363560958022       1.447379580779
         5    1        0.835644990583       4.727121916044       1.447379580779
         6    1        2.506934971748       0.000000000000       1.447379580779
         7    1        5.013869943495       0.000000000000       0.000000000000
         8    1        8.356449905826       4.727121916044       0.000000000000
         9    1        6.685159924660       2.363560958022       0.000000000000
        10    1        9.192094896408       2.363560958022       1.447379580779
        11    1        5.849514934078       4.727121916044       1.447379580779
        12    1        7.520804915243       0.000000000000       1.447379580779
        13    1       10.027739886991       0.000000000000       0.000000000000
        14    1       13.370319849321       4.727121916044       0.000000000000
        15    1       11.699029868156       2.363560958022       0.000000000000
        16    2       14.205964839903       2.363560958022       1.447379580779
        17    1       10.863384877573       4.727121916044       1.447379580779
        18    2       12.534674858738       0.000000000000       1.447379580779
        19    1       15.041609830486       0.000000000000       0.000000000000
        20    1       18.384189792816       4.727121916044       0.000000000000
        21    1       16.712899811651       2.363560958022       0.000000000000
        22    1       19.219834783399       2.363560958022       1.447379580779
        23    1       15.877254821068       4.727121916044       1.447379580779
        24    1       17.548544802234       0.000000000000       1.447379580779
        25    1       20.055479773981       0.000000000000       0.000000000000
        26    1       23.398059736311       4.727121916044       0.000000000000
        27    2       21.726769755146       2.363560958022       0.000000000000
        28    1       24.233704726894       2.363560958022       1.447379580779
        29    1       20.891124764564       4.727121916044       1.447379580779
        30    1       22.562414745729       0.000000000000       1.447379580779
        31    1       25.069349717477       0.000000000000       0.000000000000
        32    1       28.411929679807       4.727121916044       0.000000000000
        33    1       26.740639698642       2.363560958022       0.000000000000
        34    1       29.247574670389       2.363560958022       1.447379580779
        35    1       25.904994708059       4.727121916044       1.447379580779
        36    1       27.576284689224       0.000000000000       1.447379580779
        37    1       30.083219660972       0.000000000000       0.000000000000
        38    1       33.425799623302       4.727121916044       0.000000000000
        39    1       31.754509642137       2.363560958022       0.000000000000
        40    1       34.261444613885       2.363560958022       1.447379580779
        41    2       30.918864651554       4.727121916044       1.447379580779
        42    1       32.590154632720       0.000000000000       1.447379580779
        43    2       35.097089604467       0.000000000000       0.000000000000
        44    1       38.439669566797       4.727121916044       0.000000000000
        45    1       36.768379585632       2.363560958022       0.000000000000
        46    1       39.275314557380       2.363560958022       1.447379580779
        47    1       35.932734595050       4.727121916044       1.447379580779
        48    1       37.604024576215       0.000000000000       1.447379580779
        49    1       40.110959547962       0.000000000000       0.000000000000
        50    1       43.453539510293       4.727121916044       0.000000000000
        51    1       41.782249529128       2.363560958022       0.000000000000
        52    1       44.289184500875       2.363560958022       1.447379580779
        53    1       40.946604538545       4.727121916044       1.447379580779
        54    1       42.617894519710       0.000000000000       1.447379580779
        55    1       45.124829491458       0.000000000000       0.000000000000
        56    1       48.467409453788       4.727121916044       0.000000000000
        57    1       46.796119472623       2.363560958022       0.000000000000
        58    1       49.303054444371       2.363560958022       1.447379580779
        59    2       45.960474482040       4.727121916044       1.447379580779
        60    1       47.631764463205       0.000000000000       1.447379580779
        61    1       50.138699434953       0.000000000000       0.000000000000
        62    1       53.481279397283       4.727121916044       0.000000000000
        63    1       51.809989416118       2.363560958022       0.000000000000
        64    1       54.316924387866       2.363560958022       1.447379580779
        65    1       50.974344425536       4.727121916044       1.447379580779
        66    1       52.645634406701       0.000000000000       1.447379580779
        67    1       55.152569378448       0.000000000000       0.000000000000
        68    1       58.495149340779       4.727121916044       0.000000000000
        69    1       56.823859359613       2.363560958022       0.000000000000
        70    1       59.330794331361       2.363560958022       1.447379580779
        71    1       55.988214369031       4.727121916044       1.447379580779
        72    1       57.659504350196       0.000000000000       1.447379580779
        73    1       60.166439321944       0.000000000000       0.000000000000
        74    1       63.509019284274       4.727121916044       0.000000000000
        75    1       61.837729303109       2.363560958022       0.000000000000
        76    1       64.344664274856       2.363560958022       1.447379580779
        77    1       61.002084312526       4.727121916044       1.447379580779
        78    1       62.673374293691       0.000000000000       1.447379580779
        79    1       65.180309265439       0.000000000000       0.000000000000
        80    1       68.522889227769       4.727121916044       0.000000000000
        81    1       66.851599246604       2.363560958022       0.000000000000
        82    1       69.358534218352       2.363560958022       1.447379580779
        83    1       66.015954256022       4.727121916044       1.447379580779
        84    1       67.687244237187       0.000000000000       1.447379580779
        85    1       70.194179208934       0.000000000000       0.000000000000
        86    1       73.536759171265       4.727121916044       0.000000000000
        87    1       71.865469190099       2.363560958022       0.000000000000
        88    1       74.372404161847       2.363560958022       1.447379580779
        89    1       71.029824199517       4.727121916044       1.447379580779
        90    1       72.701114180682       0.000000000000       1.447379580779
        91    1       75.208049152430       0.000000000000       0.000000000000
        92    1       78.550629114760       4.727121916044       0.000000000000
        93    1       76.879339133595       2.363560958022       0.000000000000
        94    1       79.386274105342       2.363560958022       1.447379580779
        95    2       76.043694143012       4.727121916044       1.447379580779
        96    1       77.714984124177       0.000000000000       1.447379580779
        97    1       80.221919095925       0.000000000000       0.000000000000
        98    1       83.564499058255       4.727121916044       0.000000000000
        99    2       81.893209077090       2.363560958022       0.000000000000
       100    1       84.400144048838       2.363560958022       1.447379580779
       101    1       81.057564086507       4.727121916044       1.447379580779
       102    1       82.728854067673       0.000000000000       1.447379580779
       103    1       85.235789039420       0.000000000000       0.000000000000
       104    1       88.578369001750       4.727121916044       0.000000000000
       105    1       86.907079020585       2.363560958022       0.000000000000
       106    1       89.414013992333       2.363560958022       1.447379580779
       107    1       86.071434030003       4.727121916044       1.447379580779
       108    1       87.742724011168       0.000000000000       1.447379580779
       109    1       90.249658982916       0.000000000000       0.000000000000
       110    1       93.592238945246       4.727121916044       0.000000000000
       111    2       91.920948964081       2.363560958022       0.000000000000
       112    1       94.427883935828       2.363560958022       1.447379580779
       113    2       91.085303973498       4.727121916044       1.447379580779
       114    1       92.756593954663       0.000000000000       1.447379580779
       115    1       95.263528926411       0.000000000000       0.000000000000
       116    1       98.606108888741       4.727121916044       0.000000000000
       117    2       96.934818907576       2.363560958022       0.000000000000
       118    1       99.441753879324       2.363560958022       1.447379580779
       119    1       96.099173916993       4.727121916044       1.447379580779
       120    1       97.770463898159       0.000000000000       1.447379580779
       121    1        0.000000000000       7.090682874066       0.000000000000
       122    2        3.342579962330      11.817804790110       0.000000000000
       123    1        1.671289981165       9.454243832088       0.000000000000
       124    1        4.178224952913       9.454243832088       1.447379580779
       125    1        0.835644990583      11.817804790110       1.447379580779
       126    1        2.506934971748       7.090682874066       1.447379580779
       127    1        5.013869943495       7.090682874066       0.000000000000
       128    1        8.356449905826      11.817804790110       0.000000000000
       129    1        6.685159924660       9.454243832088       0.000000000000
       130    1        9.192094896408       9.454243832088       1.447379580779
       131    1        5.849514934078      11.817804790110       1.447379580779
       132    1        7.520804915243       7.090682874066       1.447379580779
       133    1       10.027739886991       7.090682874066       0.000000000000
       134    1       13.370319849321      11.817804790110       0.000000000000
       135    1       11.699029868156       9.454243832088       0.000000000000
       136    1       14.205964839903       9.454243832088       1.447379580779
       137    1       10.863384877573      11.817804790110       1.447379580779
       138    1       12.534674858738       7.090682874066       1.447379580779
       139    1       15.041609830486       7.090682874066       0.000000000000
       140    1       18.384189792816      11.817804790110       0.000000000000
       141    1       16.712899811651       9.454243832088       0.000000000000
       142    1       19.219834783399       9.454243832088       1.447379580779
       143    1       15.877254821068      11.817804790110       1.447379580779
       144    1       17.548544802234       7.090682874066       1.447379580779
       145    1       20.055479773981       7.090682874066       0.000000000000
       146    1       23.398059736311      11.817804790110       0.000000000000
       147    1       21.726769755146       9.454243832088       0.000000000000
       148    1       24.233704726894       9.454243832088       1.447379580779
       149    1       20.891124764564      11.817804790110       1.447379580779
       150    1       22.562414745729       7.090682874066       1.447379580779
       151    1       25.069349717477       7.090682874066       0.000000000000
       152    1       28.411929679807      11.817804790110       0.000000000000
       153    1       26.740639698642       9.454243832088       0.000000000000
       154    1       29.247574670389       9.454243832088       1.447379580779
       155    1       25.904994708059      11.817804790110       1.447379580779
       156    1       27.576284689224       7.090682874066       1.447379580779
       157    1       30.083219660972       7.090682874066       0.000000000000
       158    1       33.425799623302      11.817804790110       0.000000000000
       159    1       31.754509642137       9.454243832088       0.000000000000
       160    1       34.261444613885       9.454243832088       1.447379580779
       161    1       30.918864651554      11.817804790110       1.447379580779
       162    1       32.590154632720       7.090682874066       1.447379580779
       163    1       35.097089604467       7.090682874066       0.000000000000
       164    1       38.439669566797      11.817804790110       0.000000000000
       165    1       36.768379585632       9.454243832088       0.000000000000
       166    1       39.275314557380       9.454243832088       1.447379580779
       167    1       35.932734595050      11.817804790110       1.447379580779
       168    1       37.604024576215       7.090682874066       1.447379580779
       169    1       40.110959547962       7.090682874066       0.000000000000
       170    1       43.453539510293      11.817804790110       0.000000000000
       171    2       41.782249529128       9.454243832088       0.000000000000
       172    1       44.289184500875       9.454243832088       1.447379580779
       173    1       40.946604538545      11.817804790110       1.447379580779
       174    1       42.617894519710       7.090682874066       1.447379580779
       175    1       45.124829491458       7.090682874066       0.000000000000
       176    1       48.467409453788      11.817804790110       0.000000000000
       177    1       46.796119472623       9.454243832088       0.000000000000
       178    1       49.303054444371       9.454243832088       1.447379580779
       179    1       45.960474482040      11.817804790110       1.447379580779
       180    1       47.631764463205       7.090682874066       1.447379580779
       181    1       50.138699434953       7.090682874066       0.000000000000
       182    1       53.481279397283      11.817804790110       0.000000000000
       183    1       51.809989416118       9.454243832088       0.000000000000
       184    1       54.316924387866       9.454243832088       1.447379580779
       185    1       50.974344425536      11.817804790110       1.447379580779
       186    1       52.645634406701       7.090682874066       1.447379580779
       187    1       55.152569378448       7.090682874066       0.000000000000
       188    1       58.495149340779      11.817804790110       0.000000000000
       189    1       56.823859359613       9.454243832088       0.000000000000
       190    1       59.330794331361       9.454243832088       1.447379580779
       191    1       55.988214369031      11.817804790110       1.447379580779
       192    1       57.659504350196       7.090682874066       1.447379580779
       193    1       60.166439321944       7.090682874066       0.000000000000
       194    1       63.509019284274      11.817804790110       0.000000000000
       195    1       61.837729303109       9.454243832088       0.000000000000
       196    1       64.344664274856       9.454243832088       1.447379580779
       197    1       61.002084312526      11.817804790110       1.447379580779
       198    1       62.673374293691       7.090682874066       1.447379580779
       199    1       65.180309265439       7.090682874066       0.000000000000
       200    1       68.522889227769      11.817804790110       0.000000000000
       201    1       66.851599246604       9.454243832088       0.000000000000
       202    1       69.358534218352       9.454243832088       1.447379580779
       203    1       66.015954256022      11.817804790110       1.447379580779
       204    1       67.687244237187       7.090682874066       1.447379580779
       205    1       70.194179208934       7.090682874066       0.000000000000
       206    1       73.536759171265      11.817804790110       0.000000000000
       207    1       71.865469190099       9.454243832088       0.000000000000
       208    1       74.372404161847       9.454243832088       1.447379580779
       209    1       71.029824199517      11.817804790110       1.447379580779
       210    1       72.701114180682       7.090682874066       1.447379580779
       211    1       75.208049152430       7.090682874066       0.000000000000
       212    1       78.550629114760      11.817804790110       0.000000000000
       213    1       76.879339133595       9.454243832088       0.000000000000
       214    1       79.386274105342       9.454243832088       1.447379580779
       215    1       76.043694143012      11.817804790110       1.447379580779
       216    2       77.714984124177       7.090682874066       1.447379580779
       217    1       80.221919095925       7.090682874066       0.000000000000
       218    1       83.564499058255      11.817804790110       0.000000000000
       219    1       81.893209077090       9.454243832088       0.000000000000
       220    1       84.400144048838       9.454243832088       1.447379580779
       221    1       81.057564086507      11.817804790110       1.447379580779
       222    1       82.728854067673       7.090682874066       1.447379580779
       223    1       85.235789039420       7.090682874066       0.000000000000
       224    1       88.578369001750      11.817804790110       0.000000000000
       225    1       86.907079020585       9.454243832088       0.000000000000
       226    1       89.414013992333       9.454243832088       1.447379580779
       227    1       86.071434030003      11.817804790110       1.447379580779
       228    1       87.742724011168       7.090682874066       1.447379580779
       229    1       90.249658982916       7.090682874066       0.000000000000
       230    1       93.592238945246      11.817804790110       0.000000000000
       231    1       91.920948964081       9.454243832088       0.000000000000
       232    1       94.427883935828       9.454243832088       1.447379580779
       233    1       91.085303973498      11.817804790110       1.447379580779
       234    1       92.756593954663       7.090682874066       1.447379580779
       235    1       95.263528926411       7.090682874066       0.000000000000
       236    1       98.606108888741      11.817804790110       0.000000000000
       237    1       96.934818907576       9.454243832088       0.000000000000
       238    1       99.441753879324       9.454243832088       1.447379580779
       239    1       96.099173916993      11.817804790110       1.447379580779
       240    1       97.770463898159       7.090682874066       1.447379580779
       241    2        0.000000000000      14.181365748132       0.000000000000
       242    1        3.342579962330      18.908487664176       0.000000000000
       243    1        1.671289981165      16.544926706154       0.000000000000
       244    1        4.178224952913      16.544926706154       1.447379580779
       245    1        0.835644990583      18.908487664176       1.447379580779
       246    1        2.506934971748      14.181365748132       1.447379580779
       247    1        5.013869943495      14.181365748132       0.000000000000
       248    1        8.356449905826      18.908487664176       0.000000000000
       249    1        6.685159924660      16.544926706154       0.000000000000
       250    1        9.192094896408      16.544926706154       1.447379580779
       251    1        5.849514934078      18.908487664176       1.447379580779
       252    1        7.520804915243      14.181365748132       1.447379580779
       253    2       10.027739886991      14.181365748132       0.000000000000
       254    1       13.370319849321      18.908487664176       0.000000000000
       255    1       11.699029868156      16.544926706154       0.000000000000
       256    1       14.205964839903      16.544926706154       1.447379580779
       257    1       10.863384877573      18.908487664176       1.447379580779
       258    1       12.534674858738      14.181365748132       1.447379580779
       259    1       15.041609830486      14.181365748132       0.000000000000
       260    2       18.384189792816      18.908487664176       0.000000000000
       261    1       16.712899811651      16.544926706154       0.000000000000
       262    1       19.219834783399      16.544926706154       1.447379580779
       263    1       15.877254821068      18.908487664176       1.447379580779
       264    1       17.548544802234      14.181365748132       1.447379580779
       265    1       20.055479773981      14.181365748132       0.000000000000
       266    1       23.398059736311      18.908487664176       0.000000000000
       267    2       21.726769755146      16.544926706154       0.000000000000
       268    1       24.233704726894      16.544926706154       1.447379580779
       269    1       20.891124764564      18.908487664176       1.447379580779
       270    1       22.562414745729      14.181365748132       1.447379580779
       271    1       25.069349717477      14.181365748132       0.000000000000
       272    2       28.411929679807      18.908487664176       0.000000000000
       273    1       26.740639698642      16.544926706154       0.000000000000
       274    1       29.247574670389      16.544926706154       1.447379580779
       275    1       25.904994708059      18.908487664176       1.447379580779
       276    1       27.576284689224      14.181365748132       1.447379580779
       277    1       30.083219660972      14.181365748132       0.000000000000
       278    1       33.425799623302      18.908487664176       0.000000000000
       279    1       31.754509642137      16.544926706154       0.000000000000
       280    1       34.261444613885      16.544926706154       1.447379580779
       281    1       30.918864651554      18.908487664176       1.447379580779
       282    1       32.590154632720      14.181365748132       1.447379580779
       283    1       35.097089604467      14.181365748132       0.000000000000
       284    2       38.439669566797      18.908487664176       0.000000000000
       285    1       36.768379585632      16.544926706154       0.000000000000
       286    1       39.275314557380      16.544926706154       1.447379580779
       287    1       35.932734595050      18.908487664176       1.447379580779
       288    2       37.604024576215      14.181365748132       1.447379580779
       289    1       40.110959547962      14.181365748132       0.000000000000
       290    1       43.453539510293      18.908487664176       0.000000000000
       291    1       41.782249529128      16.544926706154       0.000000000000
       292    1       44.289184500875      16.544926706154       1.447379580779
       293    2       40.946604538545      18.908487664176       1.447379580779
       294    1       42.617894519710      14.181365748132       1.447379580779
       295    1       45.124829491458      14.181365748132       0.000000000000
       296    1       48.467409453788      18.908487664176       0.000000000000
       297    1       46.796119472623      16.544926706154       0.000000000000
       298    1       49.303054444371      16.544926706154       1.447379580779
       299    1       45.960474482040      18.908487664176       1.447379580779
       300    1       47.631764463205      14.181365748132       1.447379580779
       301    1       50.138699434953      14.181365748132       0.000000000000
       302    1       53.481279397283      18.908487664176       0.000000000000
       303    1       51.809989416118      16.544926706154       0.000000000000
       304    1       54.316924387866      16.544926706154       1.447379580779
       305    2       50.974344425536      18.908487664176       1.447379580779
       306    1       52.645634406701      14.181365748132       1.447379580779
       307    1       55.152569378448      14.181365748132       0.000000000000
       308    1       58.495149340779      18.908487664176       0.000000000000
       309    1       56.823859359613      16.544926706154       0.000000000000
       310    1       59.330794331361      16.544926706154       1.447379580779
       311    1       55.988214369031      18.908487664176       1.447379580779
       312    1       57.659504350196      14.181365748132       1.447379580779
       313    1       60.166439321944      14.181365748132       0.000000000000
       314    2       63.509019284274      18.908487664176       0.000000000000
       315    1       61.837729303109      16.544926706154       0.000000000000
       316    1       64.344664274856      16.544926706154       1.447379580779
       317    1       61.002084312526      18.908487664176       1.447379580779
       318    1       62.673374293691      14.181365748132       1.447379580779
       319    1       65.180309265439      14.181365748132       0.000000000000
       320    1       68.522889227769      18.908487664176       0.000000000000
       321    1       66.851599246604      16.544926706154       0.000000000000
       322    1       69.358534218352      16.544926706154       1.447379580779
       323    1       66.015954256022      18.908487664176       1.447379580779
       324    1       67.687244237187      14.181365748132       1.447379580779
       325    1       70.194179208934      14.181365748132       0.000000000000
       326    1       73.536759171265      18.908487664176       0.000000000000
       327    1       71.865469190099      16.544926706154       0.000000000000
       328    2       74.372404161847      16.544926706154       1.447379580779
       329    1       71.029824199517      18.908487664176       1.447379580779
       330    1       72.701114180682      14.181365748132       1.447379580779
       331    1       75.208049152430      14.181365748132       0.000000000000
       332    1       78.550629114760      18.908487664176       0.000000000000
       333    1       76.879339133595      16.544926706154       0.000000000000
       334    1       79.386274105342      16.544926706154       1.447379580779
       335    1       76.043694143012      18.908487664176       1.447379580779
       336    1       77.714984124177      14.181365748132       1.447379580779
       337    1       80.221919095925      14.181365748132       0.000000000000
       338    1       83.564499058255      18.908487664176       0.000000000000
       339    1       81.893209077090      16.544926706154       0.000000000000
       340    1       84.400144048838      16.544926706154       1.447379580779
       341    1       81.057564086507      18.908487664176       1.447379580779
       342    1       82.728854067673      14.181365748132       1.447379580779
       343    1       85.235789039420      14.181365748132       0.000000000000
       344    1       88.578369001750      18.908487664176       0.000000000000
       345    1       86.907079020585      16.544926706154       0.000000000000
       346    1       89.414013992333      16.544926706154       1.447379580779
       347    1       86.071434030003      18.908487664176       1.447379580779
       348    1       87.742724011168      14.181365748132       1.447379580779
       349    1       90.249658982916      14.181365748132       0.000000000000
       350    1       93.592238945246      18.908487664176       0.000000000000
       351    1       91.920948964081      16.544926706154       0.000000000000
       352    1       94.427883935828      16.544926706154       1.447379580779
       353    1       91.085303973498      18.908487664176       1.447379580779
       354    1       92.756593954663      14.181365748132       1.447379580779
       355    1       95.263528926411      14.181365748132       0.000000000000
       356    1       98.606108888741      18.908487664176       0.000000000000
       357    1       96.934818907576      16.544926706154       0.000000000000
       358    1       99.441753879324      16.544926706154       1.447379580779
       359    1       96.099173916993      18.908487664176       1.447379580779
       360    1       97.770463898159      14.181365748132       1.447379580779
       361    1        0.000000000000      21.272048622198       0.000000000000
       362    1        3.342579962330      25.999170538242       0.000000000000
       363    1        1.671289981165      23.635609580220       0.000000000000
       364    1        4.178224952913      23.635609580220       1.447379580779
       365    1        0.835644990583      25.999170538242       1.447379580779
       366    2        2.506934971748      21.272048622198       1.447379580779
       367    1        5.013869943495      21.272048622198       0.000000000000
       368    1        8.356449905826      25.999170538242       0.000000000000
       369    1        6.685159924660      23.635609580220       0.000000000000
       370    2        9.192094896408      23.635609580220       1.447379580779