 # Fcc Al oriented X=[11-2] Y=[111] Z=[1-10].
 
       34560  atoms
           2  atom types
 
      0.000000000000      98.509746492434  xlo xhi
      0.000000000000     111.451055612428  ylo yhi
      0.000000000000      51.187165789688  zlo zhi
 
Masses
 
            1   26.98153860             # Al
            2   63.54600000             # Cu
 
Atoms # atomic
 
         1    1        0.000000000000       0.000000000000       0.000000000000
         2    1        3.283658216414       4.643793983851       0.000000000000
         3    1        1.641829108207       2.321896991926       0.000000000000
         4    1        4.104572770518       2.321896991926       1.421865716380
         5    1        0.820914554104       4.643793983851       1.421865716380
         6    2        2.462743662311       0.000000000000       1.421865716380
         7    1        4.925487324622       0.000000000000       0.000000000000
         8    1        8.209145541036       4.643793983851       0.000000000000
         9    1        6.567316432829       2.321896991926       0.000000000000
        10    1        9.030060095140       2.321896991926       1.421865716380
        11    1        5.746401878725       4.643793983851       1.421865716380
        12    1        7.388230986933       0.000000000000       1.421865716380
        13    1        9.850974649243       0.000000000000       0.000000000000
        14    1       13.134632865658       4.643793983851       0.000000000000
        15    1       11.492803757451       2.321896991926       0.000000000000
        16    1       13.955547419761       2.321896991926       1.421865716380
        17    1       10.671889203347       4.643793983851       1.421865716380
        18    2       12.313718311554       0.000000000000       1.421865716380
        19    1       14.776461973865       0.000000000000       0.000000000000
        20    1       18.060120190280       4.643793983851       0.000000000000
        21    1       16.418291082072       2.321896991926       0.000000000000
        22    2       18.881034744383       2.321896991926       1.421865716380
        23    1       15.597376527969       4.643793983851       1.421865716380
        24    1       17.239205636176       0.000000000000       1.421865716380
        25    1       19.701949298487       0.000000000000       0.000000000000
        26    1       22.985607514901       4.643793983851       0.000000000000
        27    1       21.343778406694       2.321896991926       0.000000000000
        28    1       23.806522069005       2.321896991926       1.421865716380
        29    1       20.522863852590       4.643793983851       1.421865716380
        30    1       22.164692960798       0.000000000000       1.421865716380
        31    1       24.627436623108       0.000000000000       0.000000000000
        32    1       27.911094839523       4.643793983851       0.000000000000
        33    1       26.269265731316       2.321896991926       0.000000000000
        34    1       28.732009393627       2.321896991926       1.421865716380
        35    1       25.448351177212       4.643793983851       1.421865716380
        36    1       27.090180285419       0.000000000000       1.421865716380
        37    1       29.552923947730       0.000000000000       0.000000000000
        38    1       32.836582164145       4.643793983851       0.000000000000
        39    1       31.194753055937       2.321896991926       0.000000000000
        40    1       33.657496718248       2.321896991926       1.421865716380
        41    1       30.373838501834       4.643793983851       1.421865716380
        42    1       32.015667610041       0.000000000000       1.421865716380
        43    1       34.478411272352       0.000000000000       0.000000000000
        44    1       37.762069488766       4.643793983851       0.000000000000
        45    1       36.120240380559       2.321896991926       0.000000000000
        46    1       38.582984042870       2.321896991926       1.421865716380
        47    1       35.299325826456       4.643793983851       1.421865716380
        48    1       36.941154934663       0.000000000000       1.421865716380
        49    1       39.403898596974       0.000000000000       0.000000000000
        50    1       42.687556813388       4.643793983851       0.000000000000
        51    1       41.045727705181       2.321896991926       0.000000000000
        52    1       43.508471367492       2.321896991926       1.421865716380
        53    1       40.224813151077       4.643793983851       1.421865716380
        54    1       41.866642259284       0.000000000000       1.421865716380
        55    1       44.329385921595       0.000000000000       0.000000000000
        56    1       47.613044138010       4.643793983851       0.000000000000
        57    1       45.971215029803       2.321896991926       0.000000000000
        58    1       48.433958692113       2.321896991926       1.421865716380
        59    1       45.150300475699       4.643793983851       1.421865716380
        60    1       46.792129583906       0.000000000000       1.421865716380
        61    1       49.254873246217       0.000000000000       0.000000000000
        62    1       52.538531462631       4.643793983851       0.000000000000
        63    1       50.896702354424       2.321896991926       0.000000000000
        64    1       53.359446016735       2.321896991926       1.421865716380
        65    1       50.075787800321       4.643793983851       1.421865716380
        66    1       51.717616908528       0.000000000000       1.421865716380
        67    1       54.180360570839       0.000000000000       0.000000000000
        68    1       57.464018787253       4.643793983851       0.000000000000
        69    1       55.822189679046       2.321896991926       0.000000000000
        70    2       58.284933341357       2.321896991926       1.421865716380
        71    1       55.001275124942       4.643793983851       1.421865716380
        72    1       56.643104233150       0.000000000000       1.421865716380
        73    1       59.105847895460       0.000000000000       0.000000000000
        74    2       62.389506111875       4.643793983851       0.000000000000
        75    1       60.747677003668       2.321896991926       0.000000000000
        76    1       63.210420665978       2.321896991926       1.421865716380
        77    1       59.926762449564       4.643793983851       1.421865716380
        78    1       61.568591557771       0.000000000000       1.421865716380
        79    1       64.031335220082       0.000000000000       0.000000000000
        80    1       67.314993436497       4.643793983851       0.000000000000
        81    1       65.673164328289       2.321896991926       0.000000000000
        82    1       68.135907990600       2.321896991926       1.421865716380
        83    1       64.852249774186       4.643793983851       1.421865716380
        84    1       66.494078882393       0.000000000000       1.421865716380
        85    1       68.956822544704       0.000000000000       0.000000000000
        86    1       72.240480761118       4.643793983851       0.000000000000
        87    2       70.598651652911       2.321896991926       0.000000000000
        88    1       73.061395315222       2.321896991926       1.421865716380
        89    1       69.777737098807       4.643793983851       1.421865716380
        90    1       71.419566207015       0.000000000000       1.421865716380
        91    1       73.882309869325       0.000000000000       0.000000000000
        92    1       77.165968085740       4.643793983851       0.000000000000
        93    1       75.524138977533       2.321896991926       0.000000000000
        94    1       77.986882639844       2.321896991926       1.421865716380
        95    1       74.703224423429       4.643793983851       1.421865716380
        96    1       76.345053531636       0.000000000000       1.421865716380
        97    1       78.807797193947       0.000000000000       0.000000000000
        98    1       82.091455410362       4.643793983851       0.000000000000
        99    1       80.449626302154       2.321896991926       0.000000000000
       100    1       82.912369964465       2.321896991926       1.421865716380
       101    1       79.628711748051       4.643793983851       1.421865716380
       102    1       81.270540856258       0.000000000000       1.421865716380
       103    1       83.733284518569       0.000000000000       0.000000000000
       104    1       87.016942734983       4.643793983851       0.000000000000
       105    2       85.375113626776       2.321896991926       0.000000000000
       106    1       87.837857289087       2.321896991926       1.421865716380
       107    1       84.554199072673       4.643793983851       1.421865716380
       108    1       86.196028180880       0.000000000000       1.421865716380
       109    1       88.658771843191       0.000000000000       0.000000000000
       110    1       91.942430059605       4.643793983851       0.000000000000
       111    1       90.300600951398       2.321896991926       0.000000000000
       112    1       92.763344613709       2.321896991926       1.421865716380
       113    1       89.479686397294       4.643793983851       1.421865716380
       114    2       91.121515505501       0.000000000000       1.421865716380
       115    2       93.584259167812       0.000000000000       0.000000000000
       116    1       96.867917384227       4.643793983851       0.000000000000
       117    1       95.226088276020       2.321896991926       0.000000000000
       118    1       97.688831938330       2.321896991926       1.421865716380
       119    1       94.405173721916       4.643793983851       1.421865716380
       120    1       96.047002830123       0.000000000000       1.421865716380
       121    1        0.000000000000       6.965690975777       0.000000000000
       122    1        3.283658216414      11.609484959628       0.000000000000
       123    2        1.641829108207       9.287587967702       0.000000000000
       124    1        4.104572770518       9.287587967702       1.421865716380
       125    1        0.820914554104      11.609484959628       1.421865716380
       126    1        2.462743662311       6.965690975777       1.421865716380
       127    1        4.925487324622       6.965690975777       0.000000000000
       128    1        8.209145541036      11.609484959628       0.000000000000
       129    1        6.567316432829       9.287587967702       0.000000000000
       130    1        9.030060095140       9.287587967702       1.421865716380
       131    1        5.746401878725      11.609484959628       1.421865716380
       132    2        7.388230986933       6.965690975777       1.421865716380
       133    1        9.850974649243       6.965690975777       0.000000000000
       134    2       13.134632865658      11.609484959628       0.000000000000
       135    1       11.492803757451       9.287587967702       0.000000000000
       136    1       13.955547419761       9.287587967702       1.421865716380
       137    1       10.671889203347      11.609484959628       1.421865716380
       138    1       12.313718311554       6.965690975777       1.421865716380
       139    2       14.776461973865       6.965690975777       0.000000000000
       140    2       18.060120190280      11.609484959628       0.000000000000
       141    2       16.418291082072       9.287587967702       0.000000000000
       142    1       18.881034744383       9.287587967702       1.421865716380
       143    2       15.597376527969      11.609484959628       1.421865716380
       144    1       17.239205636176       6.965690975777       1.421865716380
       145    1       19.701949298487       6.965690975777       0.000000000000
       146    1       22.985607514901      11.609484959628       0.000000000000
       147    1       21.343778406694       9.287587967702       0.000000000000
       148    1       23.806522069005       9.287587967702       1.421865716380
       149    1       20.522863852590      11.609484959628       1.421865716380
       150    1       22.164692960798       6.965690975777       1.421865716380
       151    2       24.627436623108       6.965690975777       0.000000000000
       152    2       27.911094839523      11.609484959628       0.000000000000
       153    1       26.269265731316       9.287587967702       0.000000000000
       154    1       28.732009393627       9.287587967702       1.421865716380
       155    1       25.448351177212      11.609484959628       1.421865716380
       156    1       27.090180285419       6.965690975777       1.421865716380
       157    1       29.552923947730       6.965690975777       0.000000000000
       158    1       32.836582164145      11.609484959628       0.000000000000
       159    1       31.194753055937       9.287587967702       0.000000000000
       160    1       33.657496718248       9.287587967702       1.421865716380
       161    1       30.373838501834      11.609484959628       1.421865716380
       162    1       32.015667610041       6.965690975777       1.421865716380
       163    1       34.478411272352       6.965690975777       0.000000000000
       164    1       37.762069488766      11.609484959628       0.000000000000
       165    1       36.120240380559       9.287587967702       0.000000000000
       166    2       38.582984042870       9.287587967702       1.421865716380
       167    1       35.299325826456      11.609484959628       1.421865716380
       168    1       36.941154934663       6.965690975777       1.421865716380
       169    1       39.403898596974       6.965690975777       0.000000000000
       170    1       42.687556813388      11.609484959628       0.000000000000
       171    2       41.045727705181       9.287587967702       0.000000000000
       172    1       43.508471367492       9.287587967702       1.421865716380
       173    1       40.224813151077      11.609484959628       1.421865716380
       174    1       41.866642259284       6.965690975777       1.421865716380
       175    1       44.329385921595       6.965690975777       0.000000000000
       176    1       47.613044138010      11.609484959628       0.000000000000
       177    1       45.971215029803       9.287587967702       0.000000000000
       178    1       48.433958692113       9.287587967702       1.421865716380
       179    1       45.150300475699      11.609484959628       1.421865716380
       180    1       46.792129583906       6.965690975777       1.421865716380
       181    1       49.254873246217       6.965690975777       0.000000000000
       182    1       52.538531462631      11.609484959628       0.000000000000
       183    1       50.896702354424       9.287587967702       0.000000000000
       184    1       53.359446016735       9.287587967702       1.421865716380
       185    1       50.075787800321      11.609484959628       1.421865716380
       186    1       51.717616908528       6.965690975777       1.421865716380
       187    1       54.180360570839       6.965690975777       0.000000000000
       188    2       57.464018787253      11.609484959628       0.000000000000
       189    1       55.822189679046       9.287587967702       0.000000000000
       190    2       58.284933341357       9.287587967702       1.421865716380
       191    1       55.001275124942      11.609484959628       1.421865716380
       192    1       56.643104233150       6.965690975777       1.421865716380
       193    1       59.105847895460       6.965690975777       0.000000000000
       194    1       62.389506111875      11.609484959628       0.000000000000
       195    1       60.747677003668       9.287587967702       0.000000000000
       196    2       63.210420665978       9.287587967702       1.421865716380
       197    1       59.926762449564      11.609484959628       1.421865716380
       198    1       61.568591557771       6.965690975777       1.421865716380
       199    1       64.031335220082       6.965690975777       0.000000000000
       200    1       67.314993436497      11.609484959628       0.000000000000
       201    1       65.673164328289       9.287587967702       0.000000000000
       202    2       68.135907990600       9.287587967702       1.421865716380
       203    1       64.852249774186      11.609484959628       1.421865716380
       204    1       66.494078882393       6.965690975777       1.421865716380
       205    1       68.956822544704       6.965690975777       0.000000000000
       206    1       72.240480761118      11.609484959628       0.000000000000
       207    1       70.598651652911       9.287587967702       0.000000000000
       208    2       73.061395315222       9.287587967702       1.421865716380
       209    1       69.777737098807      11.609484959628       1.421865716380
       210    1       71.419566207015       6.965690975777       1.421865716380
       211    1       73.882309869325       6.965690975777       0.000000000000
       212    1       77.165968085740      11.609484959628       0.000000000000
       213    1       75.524138977533       9.287587967702       0.000000000000
       214    1       77.986882639844       9.287587967702       1.421865716380
       215    1       74.703224423429      11.609484959628       1.421865716380
       216    1       76.345053531636       6.965690975777       1.421865716380
       217    1       78.807797193947       6.965690975777       0.000000000000
       218    1       82.091455410362      11.609484959628       0.000000000000
       219    1       80.449626302154       9.287587967702       0.000000000000
       220    1       82.912369964465       9.287587967702       1.421865716380
       221    1       79.628711748051      11.609484959628       1.421865716380
       222    1       81.270540856258       6.965690975777       1.421865716380
       223    1       83.733284518569       6.965690975777       0.000000000000
       224    1       87.016942734983      11.609484959628       0.000000000000
       225    1       85.375113626776       9.287587967702       0.000000000000
       226    1       87.837857289087       9.287587967702       1.421865716380
       227    1       84.554199072673      11.609484959628       1.421865716380
       228    1       86.196028180880       6.965690975777       1.421865716380
       229    1       88.658771843191       6.965690975777       0.000000000000
       230    1       91.942430059605      11.609484959628       0.000000000000
       231    1       90.300600951398       9.287587967702       0.000000000000
       232    1       92.763344613709       9.287587967702       1.421865716380
       233    2       89.479686397294      11.609484959628       1.421865716380
       234    1       91.121515505501       6.965690975777       1.421865716380
       235    1       93.584259167812       6.965690975777       0.000000000000
       236    1       96.867917384227      11.609484959628       0.000000000000
       237    1       95.226088276020       9.287587967702       0.000000000000
       238    1       97.688831938330       9.287587967702       1.421865716380
       239    1       94.405173721916      11.609484959628       1.421865716380
       240    2       96.047002830123       6.965690975777       1.421865716380
       241    1        0.000000000000      13.931381951554       0.000000000000
       242    1        3.283658216414      18.575175935405       0.000000000000
       243    1        1.641829108207      16.253278943479       0.000000000000
       244    1        4.104572770518      16.253278943479       1.421865716380
       245    1        0.820914554104      18.575175935405       1.421865716380
       246    2        2.462743662311      13.931381951554       1.421865716380
       247    1        4.925487324622      13.931381951554       0.000000000000
       248    1        8.209145541036      18.575175935405       0.000000000000
       249    1        6.567316432829      16.253278943479       0.000000000000
       250    1        9.030060095140      16.253278943479       1.421865716380
       251    1        5.746401878725      18.575175935405       1.421865716380
       252    1        7.388230986933      13.931381951554       1.421865716380
       253    1        9.850974649243      13.931381951554       0.000000000000
       254    1       13.134632865658      18.575175935405       0.000000000000
       255    1       11.492803757451      16.253278943479       0.000000000000
       256    1       13.955547419761      16.253278943479       1.421865716380
       257    1       10.671889203347      18.575175935405       1.421865716380
       258    1       12.313718311554      13.931381951554       1.421865716380
       259    1       14.776461973865      13.931381951554       0.000000000000
       260    1       18.060120190280      18.575175935405       0.000000000000
       261    1       16.418291082072      16.253278943479       0.000000000000
       262    1       18.881034744383      16.253278943479       1.421865716380
       263    1       15.597376527969      18.575175935405       1.421865716380
       264    1       17.239205636176      13.931381951554       1.421865716380
       265    1       19.701949298487      13.931381951554       0.000000000000
       266    1       22.985607514901      18.575175935405       0.000000000000
       267    1       21.343778406694      16.253278943479       0.000000000000
       268    2       23.806522069005      16.253278943479       1.421865716380
       269    1       20.522863852590      18.575175935405       1.421865716380
       270    1       22.164692960798      13.931381951554       1.421865716380
       271    2       24.627436623108      13.931381951554       0.000000000000
       272    1       27.911094839523      18.575175935405       0.000000000000
       273    1       26.269265731316      16.253278943479       0.000000000000
       274    1       28.732009393627      16.253278943479       1.421865716380
       275    2       25.448351177212      18.575175935405       1.421865716380
       276    1       27.090180285419      13.931381951554       1.421865716380
       277    1       29.552923947730      13.931381951554       0.000000000000
       278    1       32.836582164145      18.575175935405       0.000000000000
       279    1       31.194753055937      16.253278943479       0.000000000000
       280    1       33.657496718248      16.253278943479       1.421865716380
       281    1       30.373838501834      18.575175935405       1.421865716380
       282    2       32.015667610041      13.931381951554       1.421865716380
       283    1       34.478411272352      13.931381951554       0.000000000000
       284    1       37.762069488766      18.575175935405       0.000000000000
       285    1       36.120240380559      16.253278943479       0.000000000000
       286    1       38.582984042870      16.253278943479       1.421865716380
       287    1       35.299325826456      18.575175935405       1.421865716380
       288    1       36.941154934663      13.931381951554       1.421865716380
       289    1       39.403898596974      13.931381951554       0.000000000000
       290    1       42.687556813388      18.575175935405       0.000000000000
       291    1       41.045727705181      16.253278943479       0.000000000000
       292    1       43.508471367492      16.253278943479       1.421865716380
       293    1       40.224813151077      18.575175935405       1.421865716380
       294    1       41.866642259284      13.931381951554       1.421865716380
       295    1       44.329385921595      13.931381951554       0.000000000000
       296    1       47.613044138010      18.575175935405       0.000000000000
       297    1       45.971215029803      16.253278943479       0.000000000000
       298    1       48.433958692113      16.253278943479       1.421865716380
       299    1       45.150300475699      18.575175935405       1.421865716380
       300    1       46.792129583906      13.931381951554       1.421865716380
       301    2       49.254873246217      13.931381951554       0.000000000000
       302    1       52.538531462631      18.575175935405       0.000000000000
       303    1       50.896702354424      16.253278943479       0.000000000000
       304    1       53.359446016735      16.253278943479       1.421865716380
       305    1       50.075787800321      18.575175935405       1.421865716380
       306    1       51.717616908528      13.931381951554       1.421865716380
       307    1       54.180360570839      13.931381951554       0.000000000000
       308    1       57.464018787253      18.575175935405       0.000000000000
       309    1       55.822189679046      16.253278943479       0.000000000000
       310    1       58.284933341357      16.253278943479       1.421865716380
       311    1       55.001275124942      18.575175935405       1.421865716380
       312    1       56.643104233150      13.931381951554       1.421865716380
       313    1       59.105847895460      13.931381951554       0.000000000000
       314    1       62.389506111875      18.575175935405       0.000000000000
       315    2       60.747677003668      16.253278943479       0.000000000000
       316    1       63.210420665978      16.253278943479       1.421865716380
       317    1       59.926762449564      18.575175935405       1.421865716380
       318    1       61.568591557771      13.931381951554       1.421865716380
       319    1       64.031335220082      13.931381951554       0.000000000000
       320    1       67.314993436497      18.575175935405       0.000000000000
       321    1       65.673164328289      16.253278943479       0.000000000000
       322    1       68.135907990600      16.253278943479       1.421865716380
       323    2       64.852249774186      18.575175935405       1.421865716380
       324    1       66.494078882393      13.931381951554       1.421865716380
       325    2       68.956822544704      13.931381951554       0.000000000000
       326    1       72.240480761118      18.575175935405       0.000000000000
       327    2       70.598651652911      16.253278943479       0.000000000000
       328    1       73.061395315222      16.253278943479       1.421865716380
       329    1       69.777737098807      18.575175935405       1.421865716380
       330    1       71.419566207015      13.931381951554       1.421865716380
       331    1       73.882309869325      13.931381951554       0.000000000000
       332    1       77.165968085740      18.575175935405       0.000000000000
       333    1       75.524138977533      16.253278943479       0.000000000000
       334    1       77.986882639844      16.253278943479       1.421865716380
       335    1       74.703224423429      18.575175935405       1.421865716380
       336    2       76.345053531636      13.931381951554       1.421865716380
       337    1       78.807797193947      13.931381951554       0.000000000000
       338    1       82.091455410362      18.575175935405       0.000000000000
       339    1       80.449626302154      16.253278943479       0.000000000000
       340    1       82.912369964465      16.253278943479       1.421865716380
       341    1       79.628711748051      18.575175935405       1.421865716380
       342    1       81.270540856258      13.931381951554       1.421865716380
       343    1       83.733284518569      13.931381951554       0.000000000000
       344    1       87.016942734983      18.575175935405       0.000000000000
       345    1       85.375113626776      16.253278943479       0.000000000000
       346    1       87.837857289087      16.253278943479       1.421865716380
       347    1       84.554199072673      18.575175935405       1.421865716380
       348    1       86.196028180880      13.931381951554       1.421865716380
       349    1       88.658771843191      13.931381951554       0.000000000000
       350    1       91.942430059605      18.575175935405       0.000000000000
       351    1       90.300600951398      16.253278943479       0.000000000000
       352    1       92.763344613709      16.253278943479       1.421865716380
       353    1       89.479686397294      18.575175935405       1.421865716380
       354    1       91.121515505501      13.931381951554       1.421865716380
       355    1       93.584259167812      13.931381951554       0.000000000000
       356    1       96.867917384227      18.575175935405       0.000000000000
       357    1       95.226088276020      16.253278943479       0.000000000000
       358    1       97.688831938330      16.253278943479       1.421865716380
       359    2       94.405173721916      18.575175935405       1.421865716380
       360    2       96.047002830123      13.931381951554       1.421865716380
       361    1        0.000000000000      20.897072927330       0.000000000000
       362    1        3.283658216414      25.540866911182       0.000000000000
       363    1        1.641829108207      23.218969919256       0.000000000000
       364    1        4.104572770518      23.218969919256       1.421865716380
       365    1        0.820914554104      25.540866911182       1.421865716380
       366    1        2.462743662311      20.897072927330       1.421865716380
       367    1        4.925487324622      20.897072927330       0.000000000000
       368    1        8.209145541036      25.540866911182       0.000000000000
       369    1        6.567316432829      23.218969919256       0.000000000000
       370    1        9.030060095140      23.218969919256       1.421865716380