 # Fcc Al oriented X=[11-2] Y=[111] Z=[1-10].
 
       34560  atoms
           2  atom types
 
      0.000000000000      98.749104424354  xlo xhi
      0.000000000000     111.721858199294  ylo yhi
      0.000000000000      51.311539819472  zlo zhi
 
Masses
 
            1   26.98153860             # Al
            2   63.54600000             # Cu
 
Atoms # atomic
 
         1    1        0.000000000000       0.000000000000       0.000000000000
         2    1        3.291636814145       4.655077424971       0.000000000000
         3    1        1.645818407073       2.327538712485       0.000000000000
         4    1        4.114546017681       2.327538712485       1.425320550541
         5    2        0.822909203536       4.655077424971       1.425320550541
         6    1        2.468727610609       0.000000000000       1.425320550541
         7    1        4.937455221218       0.000000000000       0.000000000000
         8    1        8.229092035363       4.655077424971       0.000000000000
         9    1        6.583273628290       2.327538712485       0.000000000000
        10    1        9.052001238899       2.327538712485       1.425320550541
        11    1        5.760364424754       4.655077424971       1.425320550541
        12    1        7.406182831827       0.000000000000       1.425320550541
        13    1        9.874910442435       0.000000000000       0.000000000000
        14    1       13.166547256580       4.655077424971       0.000000000000
        15    1       11.520728849508       2.327538712485       0.000000000000
        16    1       13.989456460117       2.327538712485       1.425320550541
        17    1       10.697819645972       4.655077424971       1.425320550541
        18    1       12.343638053044       0.000000000000       1.425320550541
        19    1       14.812365663653       0.000000000000       0.000000000000
        20    1       18.104002477798       4.655077424971       0.000000000000
        21    1       16.458184070726       2.327538712485       0.000000000000
        22    1       18.926911681334       2.327538712485       1.425320550541
        23    1       15.635274867189       4.655077424971       1.425320550541
        24    1       17.281093274262       0.000000000000       1.425320550541
        25    2       19.749820884871       0.000000000000       0.000000000000
        26    1       23.041457699016       4.655077424971       0.000000000000
        27    1       21.395639291943       2.327538712485       0.000000000000
        28    1       23.864366902552       2.327538712485       1.425320550541
        29    1       20.572730088407       4.655077424971       1.425320550541
        30    2       22.218548495480       0.000000000000       1.425320550541
        31    1       24.687276106088       0.000000000000       0.000000000000
        32    1       27.978912920234       4.655077424971       0.000000000000
        33    1       26.333094513161       2.327538712485       0.000000000000
        34    1       28.801822123770       2.327538712485       1.425320550541
        35    1       25.510185309625       4.655077424971       1.425320550541
        36    2       27.156003716697       0.000000000000       1.425320550541
        37    1       29.624731327306       0.000000000000       0.000000000000
        38    1       32.916368141451       4.655077424971       0.000000000000
        39    1       31.270549734379       2.327538712485       0.000000000000
        40    1       33.739277344988       2.327538712485       1.425320550541
        41    1       30.447640530842       4.655077424971       1.425320550541
        42    1       32.093458937915       0.000000000000       1.425320550541
        43    1       34.562186548524       0.000000000000       0.000000000000
        44    1       37.853823362669       4.655077424971       0.000000000000
        45    1       36.208004955596       2.327538712485       0.000000000000
        46    1       38.676732566205       2.327538712485       1.425320550541
        47    1       35.385095752060       4.655077424971       1.425320550541
        48    1       37.030914159133       0.000000000000       1.425320550541
        49    1       39.499641769741       0.000000000000       0.000000000000
        50    1       42.791278583887       4.655077424971       0.000000000000
        51    1       41.145460176814       2.327538712485       0.000000000000
        52    1       43.614187787423       2.327538712485       1.425320550541
        53    2       40.322550973278       4.655077424971       1.425320550541
        54    1       41.968369380350       0.000000000000       1.425320550541
        55    1       44.437096990959       0.000000000000       0.000000000000
        56    1       47.728733805104       4.655077424971       0.000000000000
        57    1       46.082915398032       2.327538712485       0.000000000000
        58    1       48.551643008641       2.327538712485       1.425320550541
        59    1       45.260006194495       4.655077424971       1.425320550541
        60    1       46.905824601568       0.000000000000       1.425320550541
        61    1       49.374552212177       0.000000000000       0.000000000000
        62    1       52.666189026322       4.655077424971       0.000000000000
        63    1       51.020370619249       2.327538712485       0.000000000000
        64    1       53.489098229858       2.327538712485       1.425320550541
        65    1       50.197461415713       4.655077424971       1.425320550541
        66    1       51.843279822786       0.000000000000       1.425320550541
        67    1       54.312007433395       0.000000000000       0.000000000000
        68    1       57.603644247540       4.655077424971       0.000000000000
        69    1       55.957825840467       2.327538712485       0.000000000000
        70    1       58.426553451076       2.327538712485       1.425320550541
        71    1       55.134916636931       4.655077424971       1.425320550541
        72    1       56.780735044003       0.000000000000       1.425320550541
        73    1       59.249462654612       0.000000000000       0.000000000000
        74    1       62.541099468757       4.655077424971       0.000000000000
        75    1       60.895281061685       2.327538712485       0.000000000000
        76    1       63.364008672294       2.327538712485       1.425320550541
        77    1       60.072371858149       4.655077424971       1.425320550541
        78    1       61.718190265221       0.000000000000       1.425320550541
        79    1       64.186917875830       0.000000000000       0.000000000000
        80    1       67.478554689975       4.655077424971       0.000000000000
        81    1       65.832736282902       2.327538712485       0.000000000000
        82    1       68.301463893511       2.327538712485       1.425320550541
        83    1       65.009827079366       4.655077424971       1.425320550541
        84    1       66.655645486439       0.000000000000       1.425320550541
        85    1       69.124373097048       0.000000000000       0.000000000000
        86    1       72.416009911193       4.655077424971       0.000000000000
        87    1       70.770191504120       2.327538712485       0.000000000000
        88    1       73.238919114729       2.327538712485       1.425320550541
        89    1       69.947282300584       4.655077424971       1.425320550541
        90    1       71.593100707656       0.000000000000       1.425320550541
        91    1       74.061828318265       0.000000000000       0.000000000000
        92    1       77.353465132410       4.655077424971       0.000000000000
        93    1       75.707646725338       2.327538712485       0.000000000000
        94    1       78.176374335947       2.327538712485       1.425320550541
        95    1       74.884737521802       4.655077424971       1.425320550541
        96    1       76.530555928874       0.000000000000       1.425320550541
        97    1       78.999283539483       0.000000000000       0.000000000000
        98    1       82.290920353628       4.655077424971       0.000000000000
        99    1       80.645101946556       2.327538712485       0.000000000000
       100    1       83.113829557164       2.327538712485       1.425320550541
       101    1       79.822192743019       4.655077424971       1.425320550541
       102    1       81.468011150092       0.000000000000       1.425320550541
       103    1       83.936738760701       0.000000000000       0.000000000000
       104    1       87.228375574846       4.655077424971       0.000000000000
       105    1       85.582557167773       2.327538712485       0.000000000000
       106    1       88.051284778382       2.327538712485       1.425320550541
       107    1       84.759647964237       4.655077424971       1.425320550541
       108    1       86.405466371310       0.000000000000       1.425320550541
       109    1       88.874193981918       0.000000000000       0.000000000000
       110    1       92.165830796063       4.655077424971       0.000000000000
       111    1       90.520012388991       2.327538712485       0.000000000000
       112    1       92.988739999600       2.327538712485       1.425320550541
       113    1       89.697103185455       4.655077424971       1.425320550541
       114    1       91.342921592527       0.000000000000       1.425320550541
       115    1       93.811649203136       0.000000000000       0.000000000000
       116    1       97.103286017281       4.655077424971       0.000000000000
       117    1       95.457467610209       2.327538712485       0.000000000000
       118    1       97.926195220817       2.327538712485       1.425320550541
       119    1       94.634558406672       4.655077424971       1.425320550541
       120    1       96.280376813745       0.000000000000       1.425320550541
       121    1        0.000000000000       6.982616137456       0.000000000000
       122    1        3.291636814145      11.637693562427       0.000000000000
       123    1        1.645818407073       9.310154849941       0.000000000000
       124    1        4.114546017681       9.310154849941       1.425320550541
       125    1        0.822909203536      11.637693562427       1.425320550541
       126    1        2.468727610609       6.982616137456       1.425320550541
       127    1        4.937455221218       6.982616137456       0.000000000000
       128    1        8.229092035363      11.637693562427       0.000000000000
       129    1        6.583273628290       9.310154849941       0.000000000000
       130    1        9.052001238899       9.310154849941       1.425320550541
       131    2        5.760364424754      11.637693562427       1.425320550541
       132    1        7.406182831827       6.982616137456       1.425320550541
       133    1        9.874910442435       6.982616137456       0.000000000000
       134    2       13.166547256580      11.637693562427       0.000000000000
       135    1       11.520728849508       9.310154849941       0.000000000000
       136    1       13.989456460117       9.310154849941       1.425320550541
       137    1       10.697819645972      11.637693562427       1.425320550541
       138    1       12.343638053044       6.982616137456       1.425320550541
       139    1       14.812365663653       6.982616137456       0.000000000000
       140    1       18.104002477798      11.637693562427       0.000000000000
       141    1       16.458184070726       9.310154849941       0.000000000000
       142    1       18.926911681334       9.310154849941       1.425320550541
       143    1       15.635274867189      11.637693562427       1.425320550541
       144    1       17.281093274262       6.982616137456       1.425320550541
       145    1       19.749820884871       6.982616137456       0.000000000000
       146    1       23.041457699016      11.637693562427       0.000000000000
       147    1       21.395639291943       9.310154849941       0.000000000000
       148    1       23.864366902552       9.310154849941       1.425320550541
       149    1       20.572730088407      11.637693562427       1.425320550541
       150    1       22.218548495480       6.982616137456       1.425320550541
       151    1       24.687276106088       6.982616137456       0.000000000000
       152    1       27.978912920234      11.637693562427       0.000000000000
       153    1       26.333094513161       9.310154849941       0.000000000000
       154    1       28.801822123770       9.310154849941       1.425320550541
       155    2       25.510185309625      11.637693562427       1.425320550541
       156    1       27.156003716697       6.982616137456       1.425320550541
       157    1       29.624731327306       6.982616137456       0.000000000000
       158    1       32.916368141451      11.637693562427       0.000000000000
       159    1       31.270549734379       9.310154849941       0.000000000000
       160    1       33.739277344988       9.310154849941       1.425320550541
       161    1       30.447640530842      11.637693562427       1.425320550541
       162    1       32.093458937915       6.982616137456       1.425320550541
       163    1       34.562186548524       6.982616137456       0.000000000000
       164    1       37.853823362669      11.637693562427       0.000000000000
       165    2       36.208004955596       9.310154849941       0.000000000000
       166    1       38.676732566205       9.310154849941       1.425320550541
       167    1       35.385095752060      11.637693562427       1.425320550541
       168    1       37.030914159133       6.982616137456       1.425320550541
       169    1       39.499641769741       6.982616137456       0.000000000000
       170    1       42.791278583887      11.637693562427       0.000000000000
       171    1       41.145460176814       9.310154849941       0.000000000000
       172    1       43.614187787423       9.310154849941       1.425320550541
       173    1       40.322550973278      11.637693562427       1.425320550541
       174    2       41.968369380350       6.982616137456       1.425320550541
       175    1       44.437096990959       6.982616137456       0.000000000000
       176    1       47.728733805104      11.637693562427       0.000000000000
       177    1       46.082915398032       9.310154849941       0.000000000000
       178    1       48.551643008641       9.310154849941       1.425320550541
       179    1       45.260006194495      11.637693562427       1.425320550541
       180    1       46.905824601568       6.982616137456       1.425320550541
       181    1       49.374552212177       6.982616137456       0.000000000000
       182    1       52.666189026322      11.637693562427       0.000000000000
       183    1       51.020370619249       9.310154849941       0.000000000000
       184    1       53.489098229858       9.310154849941       1.425320550541
       185    1       50.197461415713      11.637693562427       1.425320550541
       186    1       51.843279822786       6.982616137456       1.425320550541
       187    1       54.312007433395       6.982616137456       0.000000000000
       188    1       57.603644247540      11.637693562427       0.000000000000
       189    1       55.957825840467       9.310154849941       0.000000000000
       190    1       58.426553451076       9.310154849941       1.425320550541
       191    2       55.134916636931      11.637693562427       1.425320550541
       192    1       56.780735044003       6.982616137456       1.425320550541
       193    1       59.249462654612       6.982616137456       0.000000000000
       194    2       62.541099468757      11.637693562427       0.000000000000
       195    1       60.895281061685       9.310154849941       0.000000000000
       196    1       63.364008672294       9.310154849941       1.425320550541
       197    1       60.072371858149      11.637693562427       1.425320550541
       198    1       61.718190265221       6.982616137456       1.425320550541
       199    1       64.186917875830       6.982616137456       0.000000000000
       200    1       67.478554689975      11.637693562427       0.000000000000
       201    1       65.832736282902       9.310154849941       0.000000000000
       202    1       68.301463893511       9.310154849941       1.425320550541
       203    2       65.009827079366      11.637693562427       1.425320550541
       204    2       66.655645486439       6.982616137456       1.425320550541
       205    1       69.124373097048       6.982616137456       0.000000000000
       206    1       72.416009911193      11.637693562427       0.000000000000
       207    1       70.770191504120       9.310154849941       0.000000000000
       208    1       73.238919114729       9.310154849941       1.425320550541
       209    1       69.947282300584      11.637693562427       1.425320550541
       210    1       71.593100707656       6.982616137456       1.425320550541
       211    1       74.061828318265       6.982616137456       0.000000000000
       212    1       77.353465132410      11.637693562427       0.000000000000
       213    1       75.707646725338       9.310154849941       0.000000000000
       214    1       78.176374335947       9.310154849941       1.425320550541
       215    1       74.884737521802      11.637693562427       1.425320550541
       216    1       76.530555928874       6.982616137456       1.425320550541
       217    1       78.999283539483       6.982616137456       0.000000000000
       218    1       82.290920353628      11.637693562427       0.000000000000
       219    1       80.645101946556       9.310154849941       0.000000000000
       220    1       83.113829557164       9.310154849941       1.425320550541
       221    1       79.822192743019      11.637693562427       1.425320550541
       222    1       81.468011150092       6.982616137456       1.425320550541
       223    1       83.936738760701       6.982616137456       0.000000000000
       224    1       87.228375574846      11.637693562427       0.000000000000
       225    1       85.582557167773       9.310154849941       0.000000000000
       226    1       88.051284778382       9.310154849941       1.425320550541
       227    1       84.759647964237      11.637693562427       1.425320550541
       228    1       86.405466371310       6.982616137456       1.425320550541
       229    1       88.874193981918       6.982616137456       0.000000000000
       230    1       92.165830796063      11.637693562427       0.000000000000
       231    1       90.520012388991       9.310154849941       0.000000000000
       232    1       92.988739999600       9.310154849941       1.425320550541
       233    1       89.697103185455      11.637693562427       1.425320550541
       234    1       91.342921592527       6.982616137456       1.425320550541
       235    1       93.811649203136       6.982616137456       0.000000000000
       236    1       97.103286017281      11.637693562427       0.000000000000
       237    1       95.457467610209       9.310154849941       0.000000000000
       238    2       97.926195220817       9.310154849941       1.425320550541
       239    1       94.634558406672      11.637693562427       1.425320550541
       240    1       96.280376813745       6.982616137456       1.425320550541
       241    1        0.000000000000      13.965232274912       0.000000000000
       242    1        3.291636814145      18.620309699882       0.000000000000
       243    1        1.645818407073      16.292770987397       0.000000000000
       244    1        4.114546017681      16.292770987397       1.425320550541
       245    1        0.822909203536      18.620309699882       1.425320550541
       246    1        2.468727610609      13.965232274912       1.425320550541
       247    1        4.937455221218      13.965232274912       0.000000000000
       248    1        8.229092035363      18.620309699882       0.000000000000
       249    1        6.583273628290      16.292770987397       0.000000000000
       250    1        9.052001238899      16.292770987397       1.425320550541
       251    1        5.760364424754      18.620309699882       1.425320550541
       252    1        7.406182831827      13.965232274912       1.425320550541
       253    1        9.874910442435      13.965232274912       0.000000000000
       254    1       13.166547256580      18.620309699882       0.000000000000
       255    1       11.520728849508      16.292770987397       0.000000000000
       256    1       13.989456460117      16.292770987397       1.425320550541
       257    1       10.697819645972      18.620309699882       1.425320550541
       258    1       12.343638053044      13.965232274912       1.425320550541
       259    1       14.812365663653      13.965232274912       0.000000000000
       260    1       18.104002477798      18.620309699882       0.000000000000
       261    1       16.458184070726      16.292770987397       0.000000000000
       262    1       18.926911681334      16.292770987397       1.425320550541
       263    1       15.635274867189      18.620309699882       1.425320550541
       264    1       17.281093274262      13.965232274912       1.425320550541
       265    1       19.749820884871      13.965232274912       0.000000000000
       266    1       23.041457699016      18.620309699882       0.000000000000
       267    1       21.395639291943      16.292770987397       0.000000000000
       268    1       23.864366902552      16.292770987397       1.425320550541
       269    1       20.572730088407      18.620309699882       1.425320550541
       270    1       22.218548495480      13.965232274912       1.425320550541
       271    1       24.687276106088      13.965232274912       0.000000000000
       272    1       27.978912920234      18.620309699882       0.000000000000
       273    2       26.333094513161      16.292770987397       0.000000000000
       274    1       28.801822123770      16.292770987397       1.425320550541
       275    1       25.510185309625      18.620309699882       1.425320550541
       276    1       27.156003716697      13.965232274912       1.425320550541
       277    1       29.624731327306      13.965232274912       0.000000000000
       278    1       32.916368141451      18.620309699882       0.000000000000
       279    1       31.270549734379      16.292770987397       0.000000000000
       280    1       33.739277344988      16.292770987397       1.425320550541
       281    1       30.447640530842      18.620309699882       1.425320550541
       282    1       32.093458937915      13.965232274912       1.425320550541
       283    1       34.562186548524      13.965232274912       0.000000000000
       284    1       37.853823362669      18.620309699882       0.000000000000
       285    1       36.208004955596      16.292770987397       0.000000000000
       286    1       38.676732566205      16.292770987397       1.425320550541
       287    1       35.385095752060      18.620309699882       1.425320550541
       288    1       37.030914159133      13.965232274912       1.425320550541
       289    1       39.499641769741      13.965232274912       0.000000000000
       290    1       42.791278583887      18.620309699882       0.000000000000
       291    1       41.145460176814      16.292770987397       0.000000000000
       292    1       43.614187787423      16.292770987397       1.425320550541
       293    1       40.322550973278      18.620309699882       1.425320550541
       294    2       41.968369380350      13.965232274912       1.425320550541
       295    1       44.437096990959      13.965232274912       0.000000000000
       296    1       47.728733805104      18.620309699882       0.000000000000
       297    1       46.082915398032      16.292770987397       0.000000000000
       298    1       48.551643008641      16.292770987397       1.425320550541
       299    1       45.260006194495      18.620309699882       1.425320550541
       300    1       46.905824601568      13.965232274912       1.425320550541
       301    1       49.374552212177      13.965232274912       0.000000000000
       302    1       52.666189026322      18.620309699882       0.000000000000
       303    1       51.020370619249      16.292770987397       0.000000000000
       304    1       53.489098229858      16.292770987397       1.425320550541
       305    1       50.197461415713      18.620309699882       1.425320550541
       306    1       51.843279822786      13.965232274912       1.425320550541
       307    1       54.312007433395      13.965232274912       0.000000000000
       308    1       57.603644247540      18.620309699882       0.000000000000
       309    1       55.957825840467      16.292770987397       0.000000000000
       310    2       58.426553451076      16.292770987397       1.425320550541
       311    1       55.134916636931      18.620309699882       1.425320550541
       312    1       56.780735044003      13.965232274912       1.425320550541
       313    1       59.249462654612      13.965232274912       0.000000000000
       314    1       62.541099468757      18.620309699882       0.000000000000
       315    1       60.895281061685      16.292770987397       0.000000000000
       316    1       63.364008672294      16.292770987397       1.425320550541
       317    1       60.072371858149      18.620309699882       1.425320550541
       318    1       61.718190265221      13.965232274912       1.425320550541
       319    1       64.186917875830      13.965232274912       0.000000000000
       320    1       67.478554689975      18.620309699882       0.000000000000
       321    1       65.832736282902      16.292770987397       0.000000000000
       322    1       68.301463893511      16.292770987397       1.425320550541
       323    1       65.009827079366      18.620309699882       1.425320550541
       324    1       66.655645486439      13.965232274912       1.425320550541
       325    1       69.124373097048      13.965232274912       0.000000000000
       326    1       72.416009911193      18.620309699882       0.000000000000
       327    1       70.770191504120      16.292770987397       0.000000000000
       328    1       73.238919114729      16.292770987397       1.425320550541
       329    1       69.947282300584      18.620309699882       1.425320550541
       330    1       71.593100707656      13.965232274912       1.425320550541
       331    1       74.061828318265      13.965232274912       0.000000000000
       332    1       77.353465132410      18.620309699882       0.000000000000
       333    1       75.707646725338      16.292770987397       0.000000000000
       334    1       78.176374335947      16.292770987397       1.425320550541
       335    1       74.884737521802      18.620309699882       1.425320550541
       336    1       76.530555928874      13.965232274912       1.425320550541
       337    1       78.999283539483      13.965232274912       0.000000000000
       338    1       82.290920353628      18.620309699882       0.000000000000
       339    1       80.645101946556      16.292770987397       0.000000000000
       340    1       83.113829557164      16.292770987397       1.425320550541
       341    1       79.822192743019      18.620309699882       1.425320550541
       342    1       81.468011150092      13.965232274912       1.425320550541
       343    1       83.936738760701      13.965232274912       0.000000000000
       344    1       87.228375574846      18.620309699882       0.000000000000
       345    1       85.582557167773      16.292770987397       0.000000000000
       346    1       88.051284778382      16.292770987397       1.425320550541
       347    2       84.759647964237      18.620309699882       1.425320550541
       348    1       86.405466371310      13.965232274912       1.425320550541
       349    1       88.874193981918      13.965232274912       0.000000000000
       350    1       92.165830796063      18.620309699882       0.000000000000
       351    1       90.520012388991      16.292770987397       0.000000000000
       352    1       92.988739999600      16.292770987397       1.425320550541
       353    1       89.697103185455      18.620309699882       1.425320550541
       354    1       91.342921592527      13.965232274912       1.425320550541
       355    1       93.811649203136      13.965232274912       0.000000000000
       356    1       97.103286017281      18.620309699882       0.000000000000
       357    1       95.457467610209      16.292770987397       0.000000000000
       358    1       97.926195220817      16.292770987397       1.425320550541
       359    1       94.634558406672      18.620309699882       1.425320550541
       360    1       96.280376813745      13.965232274912       1.425320550541
       361    1        0.000000000000      20.947848412368       0.000000000000
       362    1        3.291636814145      25.602925837338       0.000000000000
       363    1        1.645818407073      23.275387124853       0.000000000000
       364    1        4.114546017681      23.275387124853       1.425320550541
       365    1        0.822909203536      25.602925837338       1.425320550541
       366    1        2.468727610609      20.947848412368       1.425320550541
       367    1        4.937455221218      20.947848412368       0.000000000000
       368    1        8.229092035363      25.602925837338       0.000000000000
       369    2        6.583273628290      23.275387124853       0.000000000000
       370    1        9.052001238899      23.275387124853       1.425320550541