 # Fcc Al oriented X=[11-2] Y=[111] Z=[1-10].
 
       34560  atoms
           2  atom types
 
      0.000000000000      99.128853283034  xlo xhi
      0.000000000000     112.151494988287  ylo yhi
      0.000000000000      51.508863114677  zlo zhi
 
Masses
 
            1   26.98153860             # Al
            2   65.38000000             # Zn
 
Atoms # atomic
 
         1    1        0.000000000000       0.000000000000       0.000000000000
         2    1        3.304295109434       4.672978957845       0.000000000000
         3    1        1.652147554717       2.336489478923       0.000000000000
         4    1        4.130368886793       2.336489478923       1.430801753185
         5    1        0.826073777359       4.672978957845       1.430801753185
         6    1        2.478221332076       0.000000000000       1.430801753185
         7    1        4.956442664152       0.000000000000       0.000000000000
         8    1        8.260737773586       4.672978957845       0.000000000000
         9    1        6.608590218869       2.336489478923       0.000000000000
        10    2        9.086811550945       2.336489478923       1.430801753185
        11    1        5.782516441510       4.672978957845       1.430801753185
        12    2        7.434663996228       0.000000000000       1.430801753185
        13    1        9.912885328303       0.000000000000       0.000000000000
        14    1       13.217180437738       4.672978957845       0.000000000000
        15    1       11.565032883021       2.336489478923       0.000000000000
        16    1       14.043254215096       2.336489478923       1.430801753185
        17    2       10.738959105662       4.672978957845       1.430801753185
        18    1       12.391106660379       0.000000000000       1.430801753185
        19    1       14.869327992455       0.000000000000       0.000000000000
        20    1       18.173623101890       4.672978957845       0.000000000000
        21    1       16.521475547172       2.336489478923       0.000000000000
        22    1       18.999696879248       2.336489478923       1.430801753185
        23    1       15.695401769814       4.672978957845       1.430801753185
        24    1       17.347549324531       0.000000000000       1.430801753185
        25    1       19.825770656607       0.000000000000       0.000000000000
        26    1       23.130065766041       4.672978957845       0.000000000000
        27    1       21.477918211324       2.336489478923       0.000000000000
        28    1       23.956139543400       2.336489478923       1.430801753185
        29    1       20.651844433965       4.672978957845       1.430801753185
        30    1       22.303991988683       0.000000000000       1.430801753185
        31    1       24.782213320758       0.000000000000       0.000000000000
        32    1       28.086508430193       4.672978957845       0.000000000000
        33    1       26.434360875476       2.336489478923       0.000000000000
        34    1       28.912582207551       2.336489478923       1.430801753185
        35    1       25.608287098117       4.672978957845       1.430801753185
        36    2       27.260434652834       0.000000000000       1.430801753185
        37    1       29.738655984910       0.000000000000       0.000000000000
        38    1       33.042951094345       4.672978957845       0.000000000000
        39    1       31.390803539627       2.336489478923       0.000000000000
        40    1       33.869024871703       2.336489478923       1.430801753185
        41    1       30.564729762269       4.672978957845       1.430801753185
        42    1       32.216877316986       0.000000000000       1.430801753185
        43    1       34.695098649062       0.000000000000       0.000000000000
        44    2       37.999393758496       4.672978957845       0.000000000000
        45    2       36.347246203779       2.336489478923       0.000000000000
        46    1       38.825467535855       2.336489478923       1.430801753185
        47    1       35.521172426420       4.672978957845       1.430801753185
        48    1       37.173319981138       0.000000000000       1.430801753185
        49    1       39.651541313213       0.000000000000       0.000000000000
        50    1       42.955836422648       4.672978957845       0.000000000000
        51    1       41.303688867931       2.336489478923       0.000000000000
        52    1       43.781910200007       2.336489478923       1.430801753185
        53    1       40.477615090572       4.672978957845       1.430801753185
        54    1       42.129762645289       0.000000000000       1.430801753185
        55    2       44.607983977365       0.000000000000       0.000000000000
        56    1       47.912279086800       4.672978957845       0.000000000000
        57    1       46.260131532082       2.336489478923       0.000000000000
        58    1       48.738352864158       2.336489478923       1.430801753185
        59    1       45.434057754724       4.672978957845       1.430801753185
        60    1       47.086205309441       0.000000000000       1.430801753185
        61    1       49.564426641517       0.000000000000       0.000000000000
        62    2       52.868721750951       4.672978957845       0.000000000000
        63    2       51.216574196234       2.336489478923       0.000000000000
        64    1       53.694795528310       2.336489478923       1.430801753185
        65    1       50.390500418875       4.672978957845       1.430801753185
        66    1       52.042647973593       0.000000000000       1.430801753185
        67    1       54.520869305669       0.000000000000       0.000000000000
        68    2       57.825164415103       4.672978957845       0.000000000000
        69    1       56.173016860386       2.336489478923       0.000000000000
        70    1       58.651238192462       2.336489478923       1.430801753185
        71    2       55.346943083027       4.672978957845       1.430801753185
        72    1       56.999090637744       0.000000000000       1.430801753185
        73    1       59.477311969820       0.000000000000       0.000000000000
        74    1       62.781607079255       4.672978957845       0.000000000000
        75    1       61.129459524537       2.336489478923       0.000000000000
        76    1       63.607680856613       2.336489478923       1.430801753185
        77    1       60.303385747179       4.672978957845       1.430801753185
        78    1       61.955533301896       0.000000000000       1.430801753185
        79    1       64.433754633972       0.000000000000       0.000000000000
        80    2       67.738049743406       4.672978957845       0.000000000000
        81    1       66.085902188689       2.336489478923       0.000000000000
        82    1       68.564123520765       2.336489478923       1.430801753185
        83    1       65.259828411331       4.672978957845       1.430801753185
        84    1       66.911975966048       0.000000000000       1.430801753185
        85    1       69.390197298124       0.000000000000       0.000000000000
        86    1       72.694492407558       4.672978957845       0.000000000000
        87    2       71.042344852841       2.336489478923       0.000000000000
        88    2       73.520566184917       2.336489478923       1.430801753185
        89    2       70.216271075482       4.672978957845       1.430801753185
        90    1       71.868418630199       0.000000000000       1.430801753185
        91    1       74.346639962275       0.000000000000       0.000000000000
        92    1       77.650935071710       4.672978957845       0.000000000000
        93    1       75.998787516992       2.336489478923       0.000000000000
        94    1       78.477008849068       2.336489478923       1.430801753185
        95    1       75.172713739634       4.672978957845       1.430801753185
        96    1       76.824861294351       0.000000000000       1.430801753185
        97    1       79.303082626427       0.000000000000       0.000000000000
        98    1       82.607377735861       4.672978957845       0.000000000000
        99    1       80.955230181144       2.336489478923       0.000000000000
       100    1       83.433451513220       2.336489478923       1.430801753185
       101    1       80.129156403786       4.672978957845       1.430801753185
       102    1       81.781303958503       0.000000000000       1.430801753185
       103    1       84.259525290579       0.000000000000       0.000000000000
       104    1       87.563820400013       4.672978957845       0.000000000000
       105    1       85.911672845296       2.336489478923       0.000000000000
       106    1       88.389894177372       2.336489478923       1.430801753185
       107    1       85.085599067937       4.672978957845       1.430801753185
       108    1       86.737746622654       0.000000000000       1.430801753185
       109    2       89.215967954730       0.000000000000       0.000000000000
       110    1       92.520263064165       4.672978957845       0.000000000000
       111    1       90.868115509448       2.336489478923       0.000000000000
       112    1       93.346336841523       2.336489478923       1.430801753185
       113    1       90.042041732089       4.672978957845       1.430801753185
       114    1       91.694189286806       0.000000000000       1.430801753185
       115    1       94.172410618882       0.000000000000       0.000000000000
       116    1       97.476705728316       4.672978957845       0.000000000000
       117    1       95.824558173599       2.336489478923       0.000000000000
       118    1       98.302779505675       2.336489478923       1.430801753185
       119    1       94.998484396241       4.672978957845       1.430801753185
       120    1       96.650631950958       0.000000000000       1.430801753185
       121    1        0.000000000000       7.009468436768       0.000000000000
       122    1        3.304295109434      11.682447394613       0.000000000000
       123    1        1.652147554717       9.345957915691       0.000000000000
       124    2        4.130368886793       9.345957915691       1.430801753185
       125    1        0.826073777359      11.682447394613       1.430801753185
       126    1        2.478221332076       7.009468436768       1.430801753185
       127    1        4.956442664152       7.009468436768       0.000000000000
       128    1        8.260737773586      11.682447394613       0.000000000000
       129    1        6.608590218869       9.345957915691       0.000000000000
       130    1        9.086811550945       9.345957915691       1.430801753185
       131    2        5.782516441510      11.682447394613       1.430801753185
       132    1        7.434663996228       7.009468436768       1.430801753185
       133    1        9.912885328303       7.009468436768       0.000000000000
       134    1       13.217180437738      11.682447394613       0.000000000000
       135    1       11.565032883021       9.345957915691       0.000000000000
       136    1       14.043254215096       9.345957915691       1.430801753185
       137    1       10.738959105662      11.682447394613       1.430801753185
       138    1       12.391106660379       7.009468436768       1.430801753185
       139    1       14.869327992455       7.009468436768       0.000000000000
       140    1       18.173623101890      11.682447394613       0.000000000000
       141    1       16.521475547172       9.345957915691       0.000000000000
       142    1       18.999696879248       9.345957915691       1.430801753185
       143    1       15.695401769814      11.682447394613       1.430801753185
       144    1       17.347549324531       7.009468436768       1.430801753185
       145    1       19.825770656607       7.009468436768       0.000000000000
       146    2       23.130065766041      11.682447394613       0.000000000000
       147    1       21.477918211324       9.345957915691       0.000000000000
       148    1       23.956139543400       9.345957915691       1.430801753185
       149    1       20.651844433965      11.682447394613       1.430801753185
       150    1       22.303991988683       7.009468436768       1.430801753185
       151    1       24.782213320758       7.009468436768       0.000000000000
       152    1       28.086508430193      11.682447394613       0.000000000000
       153    2       26.434360875476       9.345957915691       0.000000000000
       154    1       28.912582207551       9.345957915691       1.430801753185
       155    1       25.608287098117      11.682447394613       1.430801753185
       156    1       27.260434652834       7.009468436768       1.430801753185
       157    1       29.738655984910       7.009468436768       0.000000000000
       158    1       33.042951094345      11.682447394613       0.000000000000
       159    1       31.390803539627       9.345957915691       0.000000000000
       160    1       33.869024871703       9.345957915691       1.430801753185
       161    2       30.564729762269      11.682447394613       1.430801753185
       162    1       32.216877316986       7.009468436768       1.430801753185
       163    1       34.695098649062       7.009468436768       0.000000000000
       164    2       37.999393758496      11.682447394613       0.000000000000
       165    1       36.347246203779       9.345957915691       0.000000000000
       166    1       38.825467535855       9.345957915691       1.430801753185
       167    1       35.521172426420      11.682447394613       1.430801753185
       168    1       37.173319981138       7.009468436768       1.430801753185
       169    1       39.651541313213       7.009468436768       0.000000000000
       170    1       42.955836422648      11.682447394613       0.000000000000
       171    1       41.303688867931       9.345957915691       0.000000000000
       172    1       43.781910200007       9.345957915691       1.430801753185
       173    1       40.477615090572      11.682447394613       1.430801753185
       174    2       42.129762645289       7.009468436768       1.430801753185
       175    2       44.607983977365       7.009468436768       0.000000000000
       176    1       47.912279086800      11.682447394613       0.000000000000
       177    1       46.260131532082       9.345957915691       0.000000000000
       178    1       48.738352864158       9.345957915691       1.430801753185
       179    1       45.434057754724      11.682447394613       1.430801753185
       180    1       47.086205309441       7.009468436768       1.430801753185
       181    1       49.564426641517       7.009468436768       0.000000000000
       182    1       52.868721750951      11.682447394613       0.000000000000
       183    1       51.216574196234       9.345957915691       0.000000000000
       184    1       53.694795528310       9.345957915691       1.430801753185
       185    1       50.390500418875      11.682447394613       1.430801753185
       186    1       52.042647973593       7.009468436768       1.430801753185
       187    1       54.520869305669       7.009468436768       0.000000000000
       188    1       57.825164415103      11.682447394613       0.000000000000
       189    1       56.173016860386       9.345957915691       0.000000000000
       190    1       58.651238192462       9.345957915691       1.430801753185
       191    1       55.346943083027      11.682447394613       1.430801753185
       192    1       56.999090637744       7.009468436768       1.430801753185
       193    1       59.477311969820       7.009468436768       0.000000000000
       194    1       62.781607079255      11.682447394613       0.000000000000
       195    1       61.129459524537       9.345957915691       0.000000000000
       196    2       63.607680856613       9.345957915691       1.430801753185
       197    1       60.303385747179      11.682447394613       1.430801753185
       198    1       61.955533301896       7.009468436768       1.430801753185
       199    1       64.433754633972       7.009468436768       0.000000000000
       200    1       67.738049743406      11.682447394613       0.000000000000
       201    2       66.085902188689       9.345957915691       0.000000000000
       202    1       68.564123520765       9.345957915691       1.430801753185
       203    2       65.259828411331      11.682447394613       1.430801753185
       204    1       66.911975966048       7.009468436768       1.430801753185
       205    1       69.390197298124       7.009468436768       0.000000000000
       206    1       72.694492407558      11.682447394613       0.000000000000
       207    1       71.042344852841       9.345957915691       0.000000000000
       208    1       73.520566184917       9.345957915691       1.430801753185
       209    1       70.216271075482      11.682447394613       1.430801753185
       210    1       71.868418630199       7.009468436768       1.430801753185
       211    1       74.346639962275       7.009468436768       0.000000000000
       212    1       77.650935071710      11.682447394613       0.000000000000
       213    1       75.998787516992       9.345957915691       0.000000000000
       214    1       78.477008849068       9.345957915691       1.430801753185
       215    1       75.172713739634      11.682447394613       1.430801753185
       216    1       76.824861294351       7.009468436768       1.430801753185
       217    1       79.303082626427       7.009468436768       0.000000000000
       218    1       82.607377735861      11.682447394613       0.000000000000
       219    1       80.955230181144       9.345957915691       0.000000000000
       220    1       83.433451513220       9.345957915691       1.430801753185
       221    1       80.129156403786      11.682447394613       1.430801753185
       222    1       81.781303958503       7.009468436768       1.430801753185
       223    2       84.259525290579       7.009468436768       0.000000000000
       224    1       87.563820400013      11.682447394613       0.000000000000
       225    1       85.911672845296       9.345957915691       0.000000000000
       226    1       88.389894177372       9.345957915691       1.430801753185
       227    1       85.085599067937      11.682447394613       1.430801753185
       228    1       86.737746622654       7.009468436768       1.430801753185
       229    1       89.215967954730       7.009468436768       0.000000000000
       230    1       92.520263064165      11.682447394613       0.000000000000
       231    1       90.868115509448       9.345957915691       0.000000000000
       232    2       93.346336841523       9.345957915691       1.430801753185
       233    1       90.042041732089      11.682447394613       1.430801753185
       234    1       91.694189286806       7.009468436768       1.430801753185
       235    1       94.172410618882       7.009468436768       0.000000000000
       236    1       97.476705728316      11.682447394613       0.000000000000
       237    1       95.824558173599       9.345957915691       0.000000000000
       238    1       98.302779505675       9.345957915691       1.430801753185
       239    1       94.998484396241      11.682447394613       1.430801753185
       240    2       96.650631950958       7.009468436768       1.430801753185
       241    1        0.000000000000      14.018936873536       0.000000000000
       242    1        3.304295109434      18.691915831381       0.000000000000
       243    1        1.652147554717      16.355426352459       0.000000000000
       244    1        4.130368886793      16.355426352459       1.430801753185
       245    1        0.826073777359      18.691915831381       1.430801753185
       246    1        2.478221332076      14.018936873536       1.430801753185
       247    1        4.956442664152      14.018936873536       0.000000000000
       248    1        8.260737773586      18.691915831381       0.000000000000
       249    1        6.608590218869      16.355426352459       0.000000000000
       250    1        9.086811550945      16.355426352459       1.430801753185
       251    1        5.782516441510      18.691915831381       1.430801753185
       252    2        7.434663996228      14.018936873536       1.430801753185
       253    1        9.912885328303      14.018936873536       0.000000000000
       254    1       13.217180437738      18.691915831381       0.000000000000
       255    1       11.565032883021      16.355426352459       0.000000000000
       256    2       14.043254215096      16.355426352459       1.430801753185
       257    1       10.738959105662      18.691915831381       1.430801753185
       258    1       12.391106660379      14.018936873536       1.430801753185
       259    2       14.869327992455      14.018936873536       0.000000000000
       260    1       18.173623101890      18.691915831381       0.000000000000
       261    1       16.521475547172      16.355426352459       0.000000000000
       262    1       18.999696879248      16.355426352459       1.430801753185
       263    1       15.695401769814      18.691915831381       1.430801753185
       264    1       17.347549324531      14.018936873536       1.430801753185
       265    1       19.825770656607      14.018936873536       0.000000000000
       266    1       23.130065766041      18.691915831381       0.000000000000
       267    1       21.477918211324      16.355426352459       0.000000000000
       268    1       23.956139543400      16.355426352459       1.430801753185
       269    1       20.651844433965      18.691915831381       1.430801753185
       270    1       22.303991988683      14.018936873536       1.430801753185
       271    1       24.782213320758      14.018936873536       0.000000000000
       272    1       28.086508430193      18.691915831381       0.000000000000
       273    2       26.434360875476      16.355426352459       0.000000000000
       274    1       28.912582207551      16.355426352459       1.430801753185
       275    1       25.608287098117      18.691915831381       1.430801753185
       276    1       27.260434652834      14.018936873536       1.430801753185
       277    1       29.738655984910      14.018936873536       0.000000000000
       278    2       33.042951094345      18.691915831381       0.000000000000
       279    1       31.390803539627      16.355426352459       0.000000000000
       280    1       33.869024871703      16.355426352459       1.430801753185
       281    2       30.564729762269      18.691915831381       1.430801753185
       282    1       32.216877316986      14.018936873536       1.430801753185
       283    1       34.695098649062      14.018936873536       0.000000000000
       284    1       37.999393758496      18.691915831381       0.000000000000
       285    1       36.347246203779      16.355426352459       0.000000000000
       286    1       38.825467535855      16.355426352459       1.430801753185
       287    1       35.521172426420      18.691915831381       1.430801753185
       288    1       37.173319981138      14.018936873536       1.430801753185
       289    1       39.651541313213      14.018936873536       0.000000000000
       290    1       42.955836422648      18.691915831381       0.000000000000
       291    1       41.303688867931      16.355426352459       0.000000000000
       292    1       43.781910200007      16.355426352459       1.430801753185
       293    1       40.477615090572      18.691915831381       1.430801753185
       294    1       42.129762645289      14.018936873536       1.430801753185
       295    1       44.607983977365      14.018936873536       0.000000000000
       296    1       47.912279086800      18.691915831381       0.000000000000
       297    1       46.260131532082      16.355426352459       0.000000000000
       298    1       48.738352864158      16.355426352459       1.430801753185
       299    1       45.434057754724      18.691915831381       1.430801753185
       300    1       47.086205309441      14.018936873536       1.430801753185
       301    1       49.564426641517      14.018936873536       0.000000000000
       302    1       52.868721750951      18.691915831381       0.000000000000
       303    1       51.216574196234      16.355426352459       0.000000000000
       304    1       53.694795528310      16.355426352459       1.430801753185
       305    1       50.390500418875      18.691915831381       1.430801753185
       306    2       52.042647973593      14.018936873536       1.430801753185
       307    2       54.520869305669      14.018936873536       0.000000000000
       308    2       57.825164415103      18.691915831381       0.000000000000
       309    1       56.173016860386      16.355426352459       0.000000000000
       310    1       58.651238192462      16.355426352459       1.430801753185
       311    2       55.346943083027      18.691915831381       1.430801753185
       312    1       56.999090637744      14.018936873536       1.430801753185
       313    1       59.477311969820      14.018936873536       0.000000000000
       314    1       62.781607079255      18.691915831381       0.000000000000
       315    1       61.129459524537      16.355426352459       0.000000000000
       316    1       63.607680856613      16.355426352459       1.430801753185
       317    1       60.303385747179      18.691915831381       1.430801753185
       318    1       61.955533301896      14.018936873536       1.430801753185
       319    1       64.433754633972      14.018936873536       0.000000000000
       320    1       67.738049743406      18.691915831381       0.000000000000
       321    1       66.085902188689      16.355426352459       0.000000000000
       322    1       68.564123520765      16.355426352459       1.430801753185
       323    1       65.259828411331      18.691915831381       1.430801753185
       324    1       66.911975966048      14.018936873536       1.430801753185
       325    1       69.390197298124      14.018936873536       0.000000000000
       326    1       72.694492407558      18.691915831381       0.000000000000
       327    1       71.042344852841      16.355426352459       0.000000000000
       328    1       73.520566184917      16.355426352459       1.430801753185
       329    1       70.216271075482      18.691915831381       1.430801753185
       330    1       71.868418630199      14.018936873536       1.430801753185
       331    1       74.346639962275      14.018936873536       0.000000000000
       332    1       77.650935071710      18.691915831381       0.000000000000
       333    2       75.998787516992      16.355426352459       0.000000000000
       334    1       78.477008849068      16.355426352459       1.430801753185
       335    2       75.172713739634      18.691915831381       1.430801753185
       336    1       76.824861294351      14.018936873536       1.430801753185
       337    1       79.303082626427      14.018936873536       0.000000000000
       338    1       82.607377735861      18.691915831381       0.000000000000
       339    1       80.955230181144      16.355426352459       0.000000000000
       340    1       83.433451513220      16.355426352459       1.430801753185
       341    1       80.129156403786      18.691915831381       1.430801753185
       342    1       81.781303958503      14.018936873536       1.430801753185
       343    2       84.259525290579      14.018936873536       0.000000000000
       344    1       87.563820400013      18.691915831381       0.000000000000
       345    1       85.911672845296      16.355426352459       0.000000000000
       346    1       88.389894177372      16.355426352459       1.430801753185
       347    1       85.085599067937      18.691915831381       1.430801753185
       348    1       86.737746622654      14.018936873536       1.430801753185
       349    1       89.215967954730      14.018936873536       0.000000000000
       350    1       92.520263064165      18.691915831381       0.000000000000
       351    1       90.868115509448      16.355426352459       0.000000000000
       352    1       93.346336841523      16.355426352459       1.430801753185
       353    1       90.042041732089      18.691915831381       1.430801753185
       354    1       91.694189286806      14.018936873536       1.430801753185
       355    1       94.172410618882      14.018936873536       0.000000000000
       356    1       97.476705728316      18.691915831381       0.000000000000
       357    1       95.824558173599      16.355426352459       0.000000000000
       358    1       98.302779505675      16.355426352459       1.430801753185
       359    1       94.998484396241      18.691915831381       1.430801753185
       360    1       96.650631950958      14.018936873536       1.430801753185
       361    1        0.000000000000      21.028405310304       0.000000000000
       362    2        3.304295109434      25.701384268149       0.000000000000
       363    2        1.652147554717      23.364894789226       0.000000000000
       364    1        4.130368886793      23.364894789226       1.430801753185
       365    1        0.826073777359      25.701384268149       1.430801753185
       366    1        2.478221332076      21.028405310304       1.430801753185
       367    1        4.956442664152      21.028405310304       0.000000000000
       368    1        8.260737773586      25.701384268149       0.000000000000
       369    1        6.608590218869      23.364894789226       0.000000000000
       370    1        9.086811550945      23.364894789226       1.430801753185