 # Fcc Al oriented X=[11-2] Y=[111] Z=[1-10].
 
       34560  atoms
           2  atom types
 
      0.000000000000      99.146979734618  xlo xhi
      0.000000000000     112.172002727222  ylo yhi
      0.000000000000      51.518281895208  zlo zhi
 
Masses
 
            1   26.98153860             # Al
            2   65.38000000             # Zn
 
Atoms # atomic
 
         1    1        0.000000000000       0.000000000000       0.000000000000
         2    1        3.304899324487       4.673833446968       0.000000000000
         3    1        1.652449662244       2.336916723484       0.000000000000
         4    1        4.131124155609       2.336916723484       1.431063385978
         5    1        0.826224831122       4.673833446968       1.431063385978
         6    1        2.478674493365       0.000000000000       1.431063385978
         7    1        4.957348986731       0.000000000000       0.000000000000
         8    1        8.262248311218       4.673833446968       0.000000000000
         9    1        6.609798648975       2.336916723484       0.000000000000
        10    1        9.088473142340       2.336916723484       1.431063385978
        11    1        5.783573817853       4.673833446968       1.431063385978
        12    1        7.436023480096       0.000000000000       1.431063385978
        13    1        9.914697973462       0.000000000000       0.000000000000
        14    1       13.219597297949       4.673833446968       0.000000000000
        15    1       11.567147635705       2.336916723484       0.000000000000
        16    1       14.045822129071       2.336916723484       1.431063385978
        17    1       10.740922804584       4.673833446968       1.431063385978
        18    1       12.393372466827       0.000000000000       1.431063385978
        19    1       14.872046960193       0.000000000000       0.000000000000
        20    1       18.176946284680       4.673833446968       0.000000000000
        21    1       16.524496622436       2.336916723484       0.000000000000
        22    1       19.003171115802       2.336916723484       1.431063385978
        23    1       15.698271791314       4.673833446968       1.431063385978
        24    1       17.350721453558       0.000000000000       1.431063385978
        25    1       19.829395946924       0.000000000000       0.000000000000
        26    1       23.134295271411       4.673833446968       0.000000000000
        27    1       21.481845609167       2.336916723484       0.000000000000
        28    2       23.960520102533       2.336916723484       1.431063385978
        29    1       20.655620778045       4.673833446968       1.431063385978
        30    1       22.308070440289       0.000000000000       1.431063385978
        31    1       24.786744933654       0.000000000000       0.000000000000
        32    1       28.091644258142       4.673833446968       0.000000000000
        33    1       26.439194595898       2.336916723484       0.000000000000
        34    1       28.917869089264       2.336916723484       1.431063385978
        35    1       25.612969764776       4.673833446968       1.431063385978
        36    1       27.265419427020       0.000000000000       1.431063385978
        37    1       29.744093920385       0.000000000000       0.000000000000
        38    1       33.048993244873       4.673833446968       0.000000000000
        39    1       31.396543582629       2.336916723484       0.000000000000
        40    1       33.875218075994       2.336916723484       1.431063385978
        41    1       30.570318751507       4.673833446968       1.431063385978
        42    1       32.222768413751       0.000000000000       1.431063385978
        43    1       34.701442907116       0.000000000000       0.000000000000
        44    1       38.006342231604       4.673833446968       0.000000000000
        45    1       36.353892569360       2.336916723484       0.000000000000
        46    1       38.832567062725       2.336916723484       1.431063385978
        47    1       35.527667738238       4.673833446968       1.431063385978
        48    1       37.180117400482       0.000000000000       1.431063385978
        49    1       39.658791893847       0.000000000000       0.000000000000
        50    1       42.963691218334       4.673833446968       0.000000000000
        51    1       41.311241556091       2.336916723484       0.000000000000
        52    1       43.789916049456       2.336916723484       1.431063385978
        53    1       40.485016724969       4.673833446968       1.431063385978
        54    1       42.137466387213       0.000000000000       1.431063385978
        55    2       44.616140880578       0.000000000000       0.000000000000
        56    1       47.921040205065       4.673833446968       0.000000000000
        57    1       46.268590542822       2.336916723484       0.000000000000
        58    1       48.747265036187       2.336916723484       1.431063385978
        59    1       45.442365711700       4.673833446968       1.431063385978
        60    1       47.094815373943       0.000000000000       1.431063385978
        61    1       49.573489867309       0.000000000000       0.000000000000
        62    1       52.878389191796       4.673833446968       0.000000000000
        63    1       51.225939529553       2.336916723484       0.000000000000
        64    1       53.704614022918       2.336916723484       1.431063385978
        65    1       50.399714698431       4.673833446968       1.431063385978
        66    1       52.052164360674       0.000000000000       1.431063385978
        67    1       54.530838854040       0.000000000000       0.000000000000
        68    1       57.835738178527       4.673833446968       0.000000000000
        69    1       56.183288516283       2.336916723484       0.000000000000
        70    1       58.661963009649       2.336916723484       1.431063385978
        71    1       55.357063685162       4.673833446968       1.431063385978
        72    1       57.009513347405       0.000000000000       1.431063385978
        73    1       59.488187840771       0.000000000000       0.000000000000
        74    1       62.793087165258       4.673833446968       0.000000000000
        75    1       61.140637503014       2.336916723484       0.000000000000
        76    1       63.619311996380       2.336916723484       1.431063385978
        77    1       60.314412671893       4.673833446968       1.431063385978
        78    1       61.966862334136       0.000000000000       1.431063385978
        79    1       64.445536827502       0.000000000000       0.000000000000
        80    1       67.750436151989       4.673833446968       0.000000000000
        81    1       66.097986489745       2.336916723484       0.000000000000
        82    1       68.576660983111       2.336916723484       1.431063385978
        83    1       65.271761658623       4.673833446968       1.431063385978
        84    1       66.924211320867       0.000000000000       1.431063385978
        85    1       69.402885814232       0.000000000000       0.000000000000
        86    1       72.707785138720       4.673833446968       0.000000000000
        87    1       71.055335476476       2.336916723484       0.000000000000
        88    1       73.534009969842       2.336916723484       1.431063385978
        89    2       70.229110645354       4.673833446968       1.431063385978
        90    1       71.881560307598       0.000000000000       1.431063385978
        91    1       74.360234800963       0.000000000000       0.000000000000
        92    1       77.665134125451       4.673833446968       0.000000000000
        93    1       76.012684463207       2.336916723484       0.000000000000
        94    1       78.491358956572       2.336916723484       1.431063385978
        95    1       75.186459632085       4.673833446968       1.431063385978
        96    1       76.838909294329       0.000000000000       1.431063385978
        97    1       79.317583787694       0.000000000000       0.000000000000
        98    1       82.622483112182       4.673833446968       0.000000000000
        99    1       80.970033449938       2.336916723484       0.000000000000
       100    1       83.448707943303       2.336916723484       1.431063385978
       101    1       80.143808618816       4.673833446968       1.431063385978
       102    1       81.796258281060       0.000000000000       1.431063385978
       103    1       84.274932774425       0.000000000000       0.000000000000
       104    1       87.579832098912       4.673833446968       0.000000000000
       105    2       85.927382436669       2.336916723484       0.000000000000
       106    1       88.406056930034       2.336916723484       1.431063385978
       107    1       85.101157605547       4.673833446968       1.431063385978
       108    1       86.753607267791       0.000000000000       1.431063385978
       109    1       89.232281761156       0.000000000000       0.000000000000
       110    1       92.537181085643       4.673833446968       0.000000000000
       111    1       90.884731423400       2.336916723484       0.000000000000
       112    1       93.363405916765       2.336916723484       1.431063385978
       113    1       90.058506592278       4.673833446968       1.431063385978
       114    1       91.710956254522       0.000000000000       1.431063385978
       115    1       94.189630747887       0.000000000000       0.000000000000
       116    1       97.494530072374       4.673833446968       0.000000000000
       117    1       95.842080410131       2.336916723484       0.000000000000
       118    1       98.320754903496       2.336916723484       1.431063385978
       119    1       95.015855579009       4.673833446968       1.431063385978
       120    1       96.668305241252       0.000000000000       1.431063385978
       121    1        0.000000000000       7.010750170451       0.000000000000
       122    1        3.304899324487      11.684583617419       0.000000000000
       123    1        1.652449662244       9.347666893935       0.000000000000
       124    1        4.131124155609       9.347666893935       1.431063385978
       125    1        0.826224831122      11.684583617419       1.431063385978
       126    1        2.478674493365       7.010750170451       1.431063385978
       127    1        4.957348986731       7.010750170451       0.000000000000
       128    1        8.262248311218      11.684583617419       0.000000000000
       129    1        6.609798648975       9.347666893935       0.000000000000
       130    2        9.088473142340       9.347666893935       1.431063385978
       131    2        5.783573817853      11.684583617419       1.431063385978
       132    1        7.436023480096       7.010750170451       1.431063385978
       133    1        9.914697973462       7.010750170451       0.000000000000
       134    2       13.219597297949      11.684583617419       0.000000000000
       135    1       11.567147635705       9.347666893935       0.000000000000
       136    1       14.045822129071       9.347666893935       1.431063385978
       137    1       10.740922804584      11.684583617419       1.431063385978
       138    2       12.393372466827       7.010750170451       1.431063385978
       139    1       14.872046960193       7.010750170451       0.000000000000
       140    1       18.176946284680      11.684583617419       0.000000000000
       141    1       16.524496622436       9.347666893935       0.000000000000
       142    1       19.003171115802       9.347666893935       1.431063385978
       143    1       15.698271791314      11.684583617419       1.431063385978
       144    1       17.350721453558       7.010750170451       1.431063385978
       145    1       19.829395946924       7.010750170451       0.000000000000
       146    1       23.134295271411      11.684583617419       0.000000000000
       147    1       21.481845609167       9.347666893935       0.000000000000
       148    1       23.960520102533       9.347666893935       1.431063385978
       149    1       20.655620778045      11.684583617419       1.431063385978
       150    1       22.308070440289       7.010750170451       1.431063385978
       151    2       24.786744933654       7.010750170451       0.000000000000
       152    1       28.091644258142      11.684583617419       0.000000000000
       153    1       26.439194595898       9.347666893935       0.000000000000
       154    1       28.917869089264       9.347666893935       1.431063385978
       155    1       25.612969764776      11.684583617419       1.431063385978
       156    1       27.265419427020       7.010750170451       1.431063385978
       157    1       29.744093920385       7.010750170451       0.000000000000
       158    1       33.048993244873      11.684583617419       0.000000000000
       159    1       31.396543582629       9.347666893935       0.000000000000
       160    1       33.875218075994       9.347666893935       1.431063385978
       161    1       30.570318751507      11.684583617419       1.431063385978
       162    1       32.222768413751       7.010750170451       1.431063385978
       163    1       34.701442907116       7.010750170451       0.000000000000
       164    1       38.006342231604      11.684583617419       0.000000000000
       165    1       36.353892569360       9.347666893935       0.000000000000
       166    1       38.832567062725       9.347666893935       1.431063385978
       167    1       35.527667738238      11.684583617419       1.431063385978
       168    1       37.180117400482       7.010750170451       1.431063385978
       169    1       39.658791893847       7.010750170451       0.000000000000
       170    2       42.963691218334      11.684583617419       0.000000000000
       171    1       41.311241556091       9.347666893935       0.000000000000
       172    1       43.789916049456       9.347666893935       1.431063385978
       173    2       40.485016724969      11.684583617419       1.431063385978
       174    1       42.137466387213       7.010750170451       1.431063385978
       175    1       44.616140880578       7.010750170451       0.000000000000
       176    1       47.921040205065      11.684583617419       0.000000000000
       177    1       46.268590542822       9.347666893935       0.000000000000
       178    2       48.747265036187       9.347666893935       1.431063385978
       179    1       45.442365711700      11.684583617419       1.431063385978
       180    1       47.094815373943       7.010750170451       1.431063385978
       181    1       49.573489867309       7.010750170451       0.000000000000
       182    2       52.878389191796      11.684583617419       0.000000000000
       183    1       51.225939529553       9.347666893935       0.000000000000
       184    1       53.704614022918       9.347666893935       1.431063385978
       185    1       50.399714698431      11.684583617419       1.431063385978
       186    2       52.052164360674       7.010750170451       1.431063385978
       187    1       54.530838854040       7.010750170451       0.000000000000
       188    1       57.835738178527      11.684583617419       0.000000000000
       189    1       56.183288516283       9.347666893935       0.000000000000
       190    1       58.661963009649       9.347666893935       1.431063385978
       191    1       55.357063685162      11.684583617419       1.431063385978
       192    1       57.009513347405       7.010750170451       1.431063385978
       193    1       59.488187840771       7.010750170451       0.000000000000
       194    1       62.793087165258      11.684583617419       0.000000000000
       195    1       61.140637503014       9.347666893935       0.000000000000
       196    1       63.619311996380       9.347666893935       1.431063385978
       197    1       60.314412671893      11.684583617419       1.431063385978
       198    1       61.966862334136       7.010750170451       1.431063385978
       199    1       64.445536827502       7.010750170451       0.000000000000
       200    1       67.750436151989      11.684583617419       0.000000000000
       201    1       66.097986489745       9.347666893935       0.000000000000
       202    1       68.576660983111       9.347666893935       1.431063385978
       203    1       65.271761658623      11.684583617419       1.431063385978
       204    1       66.924211320867       7.010750170451       1.431063385978
       205    1       69.402885814232       7.010750170451       0.000000000000
       206    2       72.707785138720      11.684583617419       0.000000000000
       207    1       71.055335476476       9.347666893935       0.000000000000
       208    1       73.534009969842       9.347666893935       1.431063385978
       209    1       70.229110645354      11.684583617419       1.431063385978
       210    1       71.881560307598       7.010750170451       1.431063385978
       211    1       74.360234800963       7.010750170451       0.000000000000
       212    1       77.665134125451      11.684583617419       0.000000000000
       213    1       76.012684463207       9.347666893935       0.000000000000
       214    1       78.491358956572       9.347666893935       1.431063385978
       215    1       75.186459632085      11.684583617419       1.431063385978
       216    1       76.838909294329       7.010750170451       1.431063385978
       217    2       79.317583787694       7.010750170451       0.000000000000
       218    1       82.622483112182      11.684583617419       0.000000000000
       219    2       80.970033449938       9.347666893935       0.000000000000
       220    1       83.448707943303       9.347666893935       1.431063385978
       221    1       80.143808618816      11.684583617419       1.431063385978
       222    1       81.796258281060       7.010750170451       1.431063385978
       223    1       84.274932774425       7.010750170451       0.000000000000
       224    1       87.579832098912      11.684583617419       0.000000000000
       225    1       85.927382436669       9.347666893935       0.000000000000
       226    1       88.406056930034       9.347666893935       1.431063385978
       227    1       85.101157605547      11.684583617419       1.431063385978
       228    1       86.753607267791       7.010750170451       1.431063385978
       229    1       89.232281761156       7.010750170451       0.000000000000
       230    1       92.537181085643      11.684583617419       0.000000000000
       231    1       90.884731423400       9.347666893935       0.000000000000
       232    1       93.363405916765       9.347666893935       1.431063385978
       233    1       90.058506592278      11.684583617419       1.431063385978
       234    2       91.710956254522       7.010750170451       1.431063385978
       235    1       94.189630747887       7.010750170451       0.000000000000
       236    1       97.494530072374      11.684583617419       0.000000000000
       237    1       95.842080410131       9.347666893935       0.000000000000
       238    1       98.320754903496       9.347666893935       1.431063385978
       239    2       95.015855579009      11.684583617419       1.431063385978
       240    1       96.668305241252       7.010750170451       1.431063385978
       241    1        0.000000000000      14.021500340903       0.000000000000
       242    1        3.304899324487      18.695333787870       0.000000000000
       243    1        1.652449662244      16.358417064386       0.000000000000
       244    1        4.131124155609      16.358417064386       1.431063385978
       245    1        0.826224831122      18.695333787870       1.431063385978
       246    1        2.478674493365      14.021500340903       1.431063385978
       247    1        4.957348986731      14.021500340903       0.000000000000
       248    1        8.262248311218      18.695333787870       0.000000000000
       249    1        6.609798648975      16.358417064386       0.000000000000
       250    1        9.088473142340      16.358417064386       1.431063385978
       251    1        5.783573817853      18.695333787870       1.431063385978
       252    1        7.436023480096      14.021500340903       1.431063385978
       253    1        9.914697973462      14.021500340903       0.000000000000
       254    1       13.219597297949      18.695333787870       0.000000000000
       255    1       11.567147635705      16.358417064386       0.000000000000
       256    1       14.045822129071      16.358417064386       1.431063385978
       257    1       10.740922804584      18.695333787870       1.431063385978
       258    1       12.393372466827      14.021500340903       1.431063385978
       259    1       14.872046960193      14.021500340903       0.000000000000
       260    1       18.176946284680      18.695333787870       0.000000000000
       261    1       16.524496622436      16.358417064386       0.000000000000
       262    2       19.003171115802      16.358417064386       1.431063385978
       263    1       15.698271791314      18.695333787870       1.431063385978
       264    1       17.350721453558      14.021500340903       1.431063385978
       265    1       19.829395946924      14.021500340903       0.000000000000
       266    1       23.134295271411      18.695333787870       0.000000000000
       267    1       21.481845609167      16.358417064386       0.000000000000
       268    1       23.960520102533      16.358417064386       1.431063385978
       269    1       20.655620778045      18.695333787870       1.431063385978
       270    1       22.308070440289      14.021500340903       1.431063385978
       271    1       24.786744933654      14.021500340903       0.000000000000
       272    1       28.091644258142      18.695333787870       0.000000000000
       273    1       26.439194595898      16.358417064386       0.000000000000
       274    1       28.917869089264      16.358417064386       1.431063385978
       275    1       25.612969764776      18.695333787870       1.431063385978
       276    1       27.265419427020      14.021500340903       1.431063385978
       277    1       29.744093920385      14.021500340903       0.000000000000
       278    1       33.048993244873      18.695333787870       0.000000000000
       279    1       31.396543582629      16.358417064386       0.000000000000
       280    1       33.875218075994      16.358417064386       1.431063385978
       281    1       30.570318751507      18.695333787870       1.431063385978
       282    1       32.222768413751      14.021500340903       1.431063385978
       283    1       34.701442907116      14.021500340903       0.000000000000
       284    1       38.006342231604      18.695333787870       0.000000000000
       285    1       36.353892569360      16.358417064386       0.000000000000
       286    1       38.832567062725      16.358417064386       1.431063385978
       287    1       35.527667738238      18.695333787870       1.431063385978
       288    1       37.180117400482      14.021500340903       1.431063385978
       289    1       39.658791893847      14.021500340903       0.000000000000
       290    1       42.963691218334      18.695333787870       0.000000000000
       291    1       41.311241556091      16.358417064386       0.000000000000
       292    1       43.789916049456      16.358417064386       1.431063385978
       293    1       40.485016724969      18.695333787870       1.431063385978
       294    2       42.137466387213      14.021500340903       1.431063385978
       295    1       44.616140880578      14.021500340903       0.000000000000
       296    1       47.921040205065      18.695333787870       0.000000000000
       297    1       46.268590542822      16.358417064386       0.000000000000
       298    1       48.747265036187      16.358417064386       1.431063385978
       299    1       45.442365711700      18.695333787870       1.431063385978
       300    1       47.094815373943      14.021500340903       1.431063385978
       301    1       49.573489867309      14.021500340903       0.000000000000
       302    1       52.878389191796      18.695333787870       0.000000000000
       303    1       51.225939529553      16.358417064386       0.000000000000
       304    1       53.704614022918      16.358417064386       1.431063385978
       305    1       50.399714698431      18.695333787870       1.431063385978
       306    1       52.052164360674      14.021500340903       1.431063385978
       307    1       54.530838854040      14.021500340903       0.000000000000
       308    1       57.835738178527      18.695333787870       0.000000000000
       309    1       56.183288516283      16.358417064386       0.000000000000
       310    1       58.661963009649      16.358417064386       1.431063385978
       311    1       55.357063685162      18.695333787870       1.431063385978
       312    1       57.009513347405      14.021500340903       1.431063385978
       313    1       59.488187840771      14.021500340903       0.000000000000
       314    1       62.793087165258      18.695333787870       0.000000000000
       315    1       61.140637503014      16.358417064386       0.000000000000
       316    1       63.619311996380      16.358417064386       1.431063385978
       317    1       60.314412671893      18.695333787870       1.431063385978
       318    1       61.966862334136      14.021500340903       1.431063385978
       319    1       64.445536827502      14.021500340903       0.000000000000
       320    1       67.750436151989      18.695333787870       0.000000000000
       321    1       66.097986489745      16.358417064386       0.000000000000
       322    1       68.576660983111      16.358417064386       1.431063385978
       323    1       65.271761658623      18.695333787870       1.431063385978
       324    1       66.924211320867      14.021500340903       1.431063385978
       325    1       69.402885814232      14.021500340903       0.000000000000
       326    1       72.707785138720      18.695333787870       0.000000000000
       327    1       71.055335476476      16.358417064386       0.000000000000
       328    1       73.534009969842      16.358417064386       1.431063385978
       329    1       70.229110645354      18.695333787870       1.431063385978
       330    1       71.881560307598      14.021500340903       1.431063385978
       331    1       74.360234800963      14.021500340903       0.000000000000
       332    1       77.665134125451      18.695333787870       0.000000000000
       333    1       76.012684463207      16.358417064386       0.000000000000
       334    1       78.491358956572      16.358417064386       1.431063385978
       335    1       75.186459632085      18.695333787870       1.431063385978
       336    1       76.838909294329      14.021500340903       1.431063385978
       337    1       79.317583787694      14.021500340903       0.000000000000
       338    1       82.622483112182      18.695333787870       0.000000000000
       339    1       80.970033449938      16.358417064386       0.000000000000
       340    1       83.448707943303      16.358417064386       1.431063385978
       341    1       80.143808618816      18.695333787870       1.431063385978
       342    1       81.796258281060      14.021500340903       1.431063385978
       343    1       84.274932774425      14.021500340903       0.000000000000
       344    1       87.579832098912      18.695333787870       0.000000000000
       345    1       85.927382436669      16.358417064386       0.000000000000
       346    1       88.406056930034      16.358417064386       1.431063385978
       347    1       85.101157605547      18.695333787870       1.431063385978
       348    1       86.753607267791      14.021500340903       1.431063385978
       349    1       89.232281761156      14.021500340903       0.000000000000
       350    1       92.537181085643      18.695333787870       0.000000000000
       351    1       90.884731423400      16.358417064386       0.000000000000
       352    1       93.363405916765      16.358417064386       1.431063385978
       353    1       90.058506592278      18.695333787870       1.431063385978
       354    1       91.710956254522      14.021500340903       1.431063385978
       355    1       94.189630747887      14.021500340903       0.000000000000
       356    1       97.494530072374      18.695333787870       0.000000000000
       357    1       95.842080410131      16.358417064386       0.000000000000
       358    1       98.320754903496      16.358417064386       1.431063385978
       359    1       95.015855579009      18.695333787870       1.431063385978
       360    1       96.668305241252      14.021500340903       1.431063385978
       361    1        0.000000000000      21.032250511354       0.000000000000
       362    1        3.304899324487      25.706083958322       0.000000000000
       363    1        1.652449662244      23.369167234838       0.000000000000
       364    1        4.131124155609      23.369167234838       1.431063385978
       365    1        0.826224831122      25.706083958322       1.431063385978
       366    1        2.478674493365      21.032250511354       1.431063385978
       367    1        4.957348986731      21.032250511354       0.000000000000
       368    1        8.262248311218      25.706083958322       0.000000000000
       369    1        6.609798648975      23.369167234838       0.000000000000
       370    1        9.088473142340      23.369167234838       1.431063385978