 # Fcc Al oriented X=[11-2] Y=[111] Z=[1-10].
 
       34560  atoms
           2  atom types
 
      0.000000000000      99.794508672360  xlo xhi
      0.000000000000     112.904598091849  ylo yhi
      0.000000000000      51.854747801070  zlo zhi
 
Masses
 
            1   26.98153860             # Al
            2   24.30500000             # Mg
 
Atoms # atomic
 
         1    1        0.000000000000       0.000000000000       0.000000000000
         2    2        3.326483622412       4.704358253827       0.000000000000
         3    1        1.663241811206       2.352179126914       0.000000000000
         4    1        4.158104528015       2.352179126914       1.440409661141
         5    1        0.831620905603       4.704358253827       1.440409661141
         6    1        2.494862716809       0.000000000000       1.440409661141
         7    1        4.989725433618       0.000000000000       0.000000000000
         8    1        8.316209056030       4.704358253827       0.000000000000
         9    1        6.652967244824       2.352179126914       0.000000000000
        10    1        9.147829961633       2.352179126914       1.440409661141
        11    1        5.821346339221       4.704358253827       1.440409661141
        12    1        7.484588150427       0.000000000000       1.440409661141
        13    1        9.979450867236       0.000000000000       0.000000000000
        14    1       13.305934489648       4.704358253827       0.000000000000
        15    1       11.642692678442       2.352179126914       0.000000000000
        16    1       14.137555395251       2.352179126914       1.440409661141
        17    1       10.811071772839       4.704358253827       1.440409661141
        18    1       12.474313584045       0.000000000000       1.440409661141
        19    1       14.969176300854       0.000000000000       0.000000000000
        20    1       18.295659923266       4.704358253827       0.000000000000
        21    1       16.632418112060       2.352179126914       0.000000000000
        22    1       19.127280828869       2.352179126914       1.440409661141
        23    1       15.800797206457       4.704358253827       1.440409661141
        24    1       17.464039017663       0.000000000000       1.440409661141
        25    1       19.958901734472       0.000000000000       0.000000000000
        26    1       23.285385356884       4.704358253827       0.000000000000
        27    1       21.622143545678       2.352179126914       0.000000000000
        28    1       24.117006262487       2.352179126914       1.440409661141
        29    1       20.790522640075       4.704358253827       1.440409661141
        30    1       22.453764451281       0.000000000000       1.440409661141
        31    1       24.948627168090       0.000000000000       0.000000000000
        32    1       28.275110790502       4.704358253827       0.000000000000
        33    1       26.611868979296       2.352179126914       0.000000000000
        34    1       29.106731696105       2.352179126914       1.440409661141
        35    1       25.780248073693       4.704358253827       1.440409661141
        36    1       27.443489884899       0.000000000000       1.440409661141
        37    1       29.938352601708       0.000000000000       0.000000000000
        38    1       33.264836224120       4.704358253827       0.000000000000
        39    1       31.601594412914       2.352179126914       0.000000000000
        40    1       34.096457129723       2.352179126914       1.440409661141
        41    1       30.769973507311       4.704358253827       1.440409661141
        42    2       32.433215318517       0.000000000000       1.440409661141
        43    1       34.928078035326       0.000000000000       0.000000000000
        44    1       38.254561657738       4.704358253827       0.000000000000
        45    1       36.591319846532       2.352179126914       0.000000000000
        46    1       39.086182563341       2.352179126914       1.440409661141
        47    1       35.759698940929       4.704358253827       1.440409661141
        48    1       37.422940752135       0.000000000000       1.440409661141
        49    1       39.917803468944       0.000000000000       0.000000000000
        50    1       43.244287091356       4.704358253827       0.000000000000
        51    1       41.581045280150       2.352179126914       0.000000000000
        52    1       44.075907996959       2.352179126914       1.440409661141
        53    2       40.749424374547       4.704358253827       1.440409661141
        54    1       42.412666185753       0.000000000000       1.440409661141
        55    1       44.907528902562       0.000000000000       0.000000000000
        56    1       48.234012524974       4.704358253827       0.000000000000
        57    1       46.570770713768       2.352179126914       0.000000000000
        58    1       49.065633430577       2.352179126914       1.440409661141
        59    1       45.739149808165       4.704358253827       1.440409661141
        60    1       47.402391619371       0.000000000000       1.440409661141
        61    1       49.897254336180       0.000000000000       0.000000000000
        62    1       53.223737958592       4.704358253827       0.000000000000
        63    1       51.560496147386       2.352179126914       0.000000000000
        64    1       54.055358864195       2.352179126914       1.440409661141
        65    1       50.728875241783       4.704358253827       1.440409661141
        66    1       52.392117052989       0.000000000000       1.440409661141
        67    1       54.886979769798       0.000000000000       0.000000000000
        68    1       58.213463392210       4.704358253827       0.000000000000
        69    1       56.550221581004       2.352179126914       0.000000000000
        70    1       59.045084297813       2.352179126914       1.440409661141
        71    1       55.718600675401       4.704358253827       1.440409661141
        72    1       57.381842486607       0.000000000000       1.440409661141
        73    1       59.876705203416       0.000000000000       0.000000000000
        74    1       63.203188825828       4.704358253827       0.000000000000
        75    1       61.539947014622       2.352179126914       0.000000000000
        76    1       64.034809731431       2.352179126914       1.440409661141
        77    1       60.708326109019       4.704358253827       1.440409661141
        78    1       62.371567920225       0.000000000000       1.440409661141
        79    1       64.866430637034       0.000000000000       0.000000000000
        80    1       68.192914259446       4.704358253827       0.000000000000
        81    1       66.529672448240       2.352179126914       0.000000000000
        82    1       69.024535165049       2.352179126914       1.440409661141
        83    1       65.698051542637       4.704358253827       1.440409661141
        84    1       67.361293353843       0.000000000000       1.440409661141
        85    1       69.856156070652       0.000000000000       0.000000000000
        86    1       73.182639693064       4.704358253827       0.000000000000
        87    1       71.519397881858       2.352179126914       0.000000000000
        88    2       74.014260598667       2.352179126914       1.440409661141
        89    1       70.687776976255       4.704358253827       1.440409661141
        90    1       72.351018787461       0.000000000000       1.440409661141
        91    1       74.845881504270       0.000000000000       0.000000000000
        92    1       78.172365126682       4.704358253827       0.000000000000
        93    1       76.509123315476       2.352179126914       0.000000000000
        94    1       79.003986032285       2.352179126914       1.440409661141
        95    1       75.677502409873       4.704358253827       1.440409661141
        96    1       77.340744221079       0.000000000000       1.440409661141
        97    1       79.835606937888       0.000000000000       0.000000000000
        98    1       83.162090560300       4.704358253827       0.000000000000
        99    1       81.498848749094       2.352179126914       0.000000000000
       100    1       83.993711465903       2.352179126914       1.440409661141
       101    1       80.667227843491       4.704358253827       1.440409661141
       102    1       82.330469654697       0.000000000000       1.440409661141
       103    1       84.825332371506       0.000000000000       0.000000000000
       104    1       88.151815993918       4.704358253827       0.000000000000
       105    1       86.488574182712       2.352179126914       0.000000000000
       106    1       88.983436899521       2.352179126914       1.440409661141
       107    1       85.656953277109       4.704358253827       1.440409661141
       108    1       87.320195088315       0.000000000000       1.440409661141
       109    1       89.815057805124       0.000000000000       0.000000000000
       110    1       93.141541427536       4.704358253827       0.000000000000
       111    1       91.478299616330       2.352179126914       0.000000000000
       112    1       93.973162333139       2.352179126914       1.440409661141
       113    2       90.646678710727       4.704358253827       1.440409661141
       114    1       92.309920521933       0.000000000000       1.440409661141
       115    1       94.804783238742       0.000000000000       0.000000000000
       116    1       98.131266861154       4.704358253827       0.000000000000
       117    1       96.468025049948       2.352179126914       0.000000000000
       118    1       98.962887766757       2.352179126914       1.440409661141
       119    1       95.636404144345       4.704358253827       1.440409661141
       120    1       97.299645955551       0.000000000000       1.440409661141
       121    1        0.000000000000       7.056537380741       0.000000000000
       122    1        3.326483622412      11.760895634568       0.000000000000
       123    1        1.663241811206       9.408716507654       0.000000000000
       124    1        4.158104528015       9.408716507654       1.440409661141
       125    1        0.831620905603      11.760895634568       1.440409661141
       126    1        2.494862716809       7.056537380741       1.440409661141
       127    1        4.989725433618       7.056537380741       0.000000000000
       128    1        8.316209056030      11.760895634568       0.000000000000
       129    1        6.652967244824       9.408716507654       0.000000000000
       130    1        9.147829961633       9.408716507654       1.440409661141
       131    1        5.821346339221      11.760895634568       1.440409661141
       132    1        7.484588150427       7.056537380741       1.440409661141
       133    1        9.979450867236       7.056537380741       0.000000000000
       134    1       13.305934489648      11.760895634568       0.000000000000
       135    1       11.642692678442       9.408716507654       0.000000000000
       136    1       14.137555395251       9.408716507654       1.440409661141
       137    1       10.811071772839      11.760895634568       1.440409661141
       138    1       12.474313584045       7.056537380741       1.440409661141
       139    1       14.969176300854       7.056537380741       0.000000000000
       140    2       18.295659923266      11.760895634568       0.000000000000
       141    1       16.632418112060       9.408716507654       0.000000000000
       142    1       19.127280828869       9.408716507654       1.440409661141
       143    1       15.800797206457      11.760895634568       1.440409661141
       144    1       17.464039017663       7.056537380741       1.440409661141
       145    1       19.958901734472       7.056537380741       0.000000000000
       146    1       23.285385356884      11.760895634568       0.000000000000
       147    1       21.622143545678       9.408716507654       0.000000000000
       148    1       24.117006262487       9.408716507654       1.440409661141
       149    1       20.790522640075      11.760895634568       1.440409661141
       150    1       22.453764451281       7.056537380741       1.440409661141
       151    1       24.948627168090       7.056537380741       0.000000000000
       152    1       28.275110790502      11.760895634568       0.000000000000
       153    1       26.611868979296       9.408716507654       0.000000000000
       154    1       29.106731696105       9.408716507654       1.440409661141
       155    2       25.780248073693      11.760895634568       1.440409661141
       156    1       27.443489884899       7.056537380741       1.440409661141
       157    1       29.938352601708       7.056537380741       0.000000000000
       158    1       33.264836224120      11.760895634568       0.000000000000
       159    1       31.601594412914       9.408716507654       0.000000000000
       160    1       34.096457129723       9.408716507654       1.440409661141
       161    1       30.769973507311      11.760895634568       1.440409661141
       162    2       32.433215318517       7.056537380741       1.440409661141
       163    1       34.928078035326       7.056537380741       0.000000000000
       164    1       38.254561657738      11.760895634568       0.000000000000
       165    1       36.591319846532       9.408716507654       0.000000000000
       166    1       39.086182563341       9.408716507654       1.440409661141
       167    1       35.759698940929      11.760895634568       1.440409661141
       168    1       37.422940752135       7.056537380741       1.440409661141
       169    2       39.917803468944       7.056537380741       0.000000000000
       170    1       43.244287091356      11.760895634568       0.000000000000
       171    1       41.581045280150       9.408716507654       0.000000000000
       172    1       44.075907996959       9.408716507654       1.440409661141
       173    1       40.749424374547      11.760895634568       1.440409661141
       174    1       42.412666185753       7.056537380741       1.440409661141
       175    1       44.907528902562       7.056537380741       0.000000000000
       176    1       48.234012524974      11.760895634568       0.000000000000
       177    1       46.570770713768       9.408716507654       0.000000000000
       178    1       49.065633430577       9.408716507654       1.440409661141
       179    1       45.739149808165      11.760895634568       1.440409661141
       180    1       47.402391619371       7.056537380741       1.440409661141
       181    1       49.897254336180       7.056537380741       0.000000000000
       182    1       53.223737958592      11.760895634568       0.000000000000
       183    2       51.560496147386       9.408716507654       0.000000000000
       184    1       54.055358864195       9.408716507654       1.440409661141
       185    1       50.728875241783      11.760895634568       1.440409661141
       186    1       52.392117052989       7.056537380741       1.440409661141
       187    1       54.886979769798       7.056537380741       0.000000000000
       188    1       58.213463392210      11.760895634568       0.000000000000
       189    1       56.550221581004       9.408716507654       0.000000000000
       190    1       59.045084297813       9.408716507654       1.440409661141
       191    1       55.718600675401      11.760895634568       1.440409661141
       192    1       57.381842486607       7.056537380741       1.440409661141
       193    1       59.876705203416       7.056537380741       0.000000000000
       194    1       63.203188825828      11.760895634568       0.000000000000
       195    1       61.539947014622       9.408716507654       0.000000000000
       196    1       64.034809731431       9.408716507654       1.440409661141
       197    1       60.708326109019      11.760895634568       1.440409661141
       198    1       62.371567920225       7.056537380741       1.440409661141
       199    1       64.866430637034       7.056537380741       0.000000000000
       200    1       68.192914259446      11.760895634568       0.000000000000
       201    1       66.529672448240       9.408716507654       0.000000000000
       202    1       69.024535165049       9.408716507654       1.440409661141
       203    1       65.698051542637      11.760895634568       1.440409661141
       204    1       67.361293353843       7.056537380741       1.440409661141
       205    1       69.856156070652       7.056537380741       0.000000000000
       206    1       73.182639693064      11.760895634568       0.000000000000
       207    1       71.519397881858       9.408716507654       0.000000000000
       208    1       74.014260598667       9.408716507654       1.440409661141
       209    1       70.687776976255      11.760895634568       1.440409661141
       210    1       72.351018787461       7.056537380741       1.440409661141
       211    1       74.845881504270       7.056537380741       0.000000000000
       212    1       78.172365126682      11.760895634568       0.000000000000
       213    1       76.509123315476       9.408716507654       0.000000000000
       214    1       79.003986032285       9.408716507654       1.440409661141
       215    1       75.677502409873      11.760895634568       1.440409661141
       216    2       77.340744221079       7.056537380741       1.440409661141
       217    1       79.835606937888       7.056537380741       0.000000000000
       218    1       83.162090560300      11.760895634568       0.000000000000
       219    1       81.498848749094       9.408716507654       0.000000000000
       220    1       83.993711465903       9.408716507654       1.440409661141
       221    1       80.667227843491      11.760895634568       1.440409661141
       222    1       82.330469654697       7.056537380741       1.440409661141
       223    1       84.825332371506       7.056537380741       0.000000000000
       224    1       88.151815993918      11.760895634568       0.000000000000
       225    1       86.488574182712       9.408716507654       0.000000000000
       226    1       88.983436899521       9.408716507654       1.440409661141
       227    1       85.656953277109      11.760895634568       1.440409661141
       228    1       87.320195088315       7.056537380741       1.440409661141
       229    1       89.815057805124       7.056537380741       0.000000000000
       230    1       93.141541427536      11.760895634568       0.000000000000
       231    1       91.478299616330       9.408716507654       0.000000000000
       232    1       93.973162333139       9.408716507654       1.440409661141
       233    1       90.646678710727      11.760895634568       1.440409661141
       234    2       92.309920521933       7.056537380741       1.440409661141
       235    1       94.804783238742       7.056537380741       0.000000000000
       236    1       98.131266861154      11.760895634568       0.000000000000
       237    1       96.468025049948       9.408716507654       0.000000000000
       238    1       98.962887766757       9.408716507654       1.440409661141
       239    1       95.636404144345      11.760895634568       1.440409661141
       240    1       97.299645955551       7.056537380741       1.440409661141
       241    1        0.000000000000      14.113074761481       0.000000000000
       242    1        3.326483622412      18.817433015308       0.000000000000
       243    1        1.663241811206      16.465253888395       0.000000000000
       244    1        4.158104528015      16.465253888395       1.440409661141
       245    2        0.831620905603      18.817433015308       1.440409661141
       246    1        2.494862716809      14.113074761481       1.440409661141
       247    1        4.989725433618      14.113074761481       0.000000000000
       248    1        8.316209056030      18.817433015308       0.000000000000
       249    1        6.652967244824      16.465253888395       0.000000000000
       250    2        9.147829961633      16.465253888395       1.440409661141
       251    1        5.821346339221      18.817433015308       1.440409661141
       252    1        7.484588150427      14.113074761481       1.440409661141
       253    1        9.979450867236      14.113074761481       0.000000000000
       254    1       13.305934489648      18.817433015308       0.000000000000
       255    1       11.642692678442      16.465253888395       0.000000000000
       256    1       14.137555395251      16.465253888395       1.440409661141
       257    1       10.811071772839      18.817433015308       1.440409661141
       258    1       12.474313584045      14.113074761481       1.440409661141
       259    1       14.969176300854      14.113074761481       0.000000000000
       260    1       18.295659923266      18.817433015308       0.000000000000
       261    1       16.632418112060      16.465253888395       0.000000000000
       262    1       19.127280828869      16.465253888395       1.440409661141
       263    1       15.800797206457      18.817433015308       1.440409661141
       264    1       17.464039017663      14.113074761481       1.440409661141
       265    1       19.958901734472      14.113074761481       0.000000000000
       266    1       23.285385356884      18.817433015308       0.000000000000
       267    1       21.622143545678      16.465253888395       0.000000000000
       268    1       24.117006262487      16.465253888395       1.440409661141
       269    1       20.790522640075      18.817433015308       1.440409661141
       270    1       22.453764451281      14.113074761481       1.440409661141
       271    1       24.948627168090      14.113074761481       0.000000000000
       272    1       28.275110790502      18.817433015308       0.000000000000
       273    1       26.611868979296      16.465253888395       0.000000000000
       274    1       29.106731696105      16.465253888395       1.440409661141
       275    1       25.780248073693      18.817433015308       1.440409661141
       276    1       27.443489884899      14.113074761481       1.440409661141
       277    1       29.938352601708      14.113074761481       0.000000000000
       278    1       33.264836224120      18.817433015308       0.000000000000
       279    1       31.601594412914      16.465253888395       0.000000000000
       280    2       34.096457129723      16.465253888395       1.440409661141
       281    1       30.769973507311      18.817433015308       1.440409661141
       282    1       32.433215318517      14.113074761481       1.440409661141
       283    1       34.928078035326      14.113074761481       0.000000000000
       284    1       38.254561657738      18.817433015308       0.000000000000
       285    1       36.591319846532      16.465253888395       0.000000000000
       286    1       39.086182563341      16.465253888395       1.440409661141
       287    1       35.759698940929      18.817433015308       1.440409661141
       288    1       37.422940752135      14.113074761481       1.440409661141
       289    1       39.917803468944      14.113074761481       0.000000000000
       290    1       43.244287091356      18.817433015308       0.000000000000
       291    1       41.581045280150      16.465253888395       0.000000000000
       292    1       44.075907996959      16.465253888395       1.440409661141
       293    1       40.749424374547      18.817433015308       1.440409661141
       294    1       42.412666185753      14.113074761481       1.440409661141
       295    1       44.907528902562      14.113074761481       0.000000000000
       296    1       48.234012524974      18.817433015308       0.000000000000
       297    1       46.570770713768      16.465253888395       0.000000000000
       298    1       49.065633430577      16.465253888395       1.440409661141
       299    2       45.739149808165      18.817433015308       1.440409661141
       300    1       47.402391619371      14.113074761481       1.440409661141
       301    1       49.897254336180      14.113074761481       0.000000000000
       302    1       53.223737958592      18.817433015308       0.000000000000
       303    2       51.560496147386      16.465253888395       0.000000000000
       304    1       54.055358864195      16.465253888395       1.440409661141
       305    1       50.728875241783      18.817433015308       1.440409661141
       306    1       52.392117052989      14.113074761481       1.440409661141
       307    1       54.886979769798      14.113074761481       0.000000000000
       308    1       58.213463392210      18.817433015308       0.000000000000
       309    1       56.550221581004      16.465253888395       0.000000000000
       310    1       59.045084297813      16.465253888395       1.440409661141
       311    1       55.718600675401      18.817433015308       1.440409661141
       312    1       57.381842486607      14.113074761481       1.440409661141
       313    1       59.876705203416      14.113074761481       0.000000000000
       314    1       63.203188825828      18.817433015308       0.000000000000
       315    1       61.539947014622      16.465253888395       0.000000000000
       316    1       64.034809731431      16.465253888395       1.440409661141
       317    1       60.708326109019      18.817433015308       1.440409661141
       318    1       62.371567920225      14.113074761481       1.440409661141
       319    1       64.866430637034      14.113074761481       0.000000000000
       320    1       68.192914259446      18.817433015308       0.000000000000
       321    1       66.529672448240      16.465253888395       0.000000000000
       322    1       69.024535165049      16.465253888395       1.440409661141
       323    1       65.698051542637      18.817433015308       1.440409661141
       324    1       67.361293353843      14.113074761481       1.440409661141
       325    1       69.856156070652      14.113074761481       0.000000000000
       326    1       73.182639693064      18.817433015308       0.000000000000
       327    1       71.519397881858      16.465253888395       0.000000000000
       328    1       74.014260598667      16.465253888395       1.440409661141
       329    1       70.687776976255      18.817433015308       1.440409661141
       330    1       72.351018787461      14.113074761481       1.440409661141
       331    1       74.845881504270      14.113074761481       0.000000000000
       332    1       78.172365126682      18.817433015308       0.000000000000
       333    2       76.509123315476      16.465253888395       0.000000000000
       334    1       79.003986032285      16.465253888395       1.440409661141
       335    1       75.677502409873      18.817433015308       1.440409661141
       336    1       77.340744221079      14.113074761481       1.440409661141
       337    1       79.835606937888      14.113074761481       0.000000000000
       338    1       83.162090560300      18.817433015308       0.000000000000
       339    1       81.498848749094      16.465253888395       0.000000000000
       340    1       83.993711465903      16.465253888395       1.440409661141
       341    1       80.667227843491      18.817433015308       1.440409661141
       342    2       82.330469654697      14.113074761481       1.440409661141
       343    1       84.825332371506      14.113074761481       0.000000000000
       344    1       88.151815993918      18.817433015308       0.000000000000
       345    1       86.488574182712      16.465253888395       0.000000000000
       346    1       88.983436899521      16.465253888395       1.440409661141
       347    1       85.656953277109      18.817433015308       1.440409661141
       348    1       87.320195088315      14.113074761481       1.440409661141
       349    1       89.815057805124      14.113074761481       0.000000000000
       350    1       93.141541427536      18.817433015308       0.000000000000
       351    1       91.478299616330      16.465253888395       0.000000000000
       352    1       93.973162333139      16.465253888395       1.440409661141
       353    1       90.646678710727      18.817433015308       1.440409661141
       354    1       92.309920521933      14.113074761481       1.440409661141
       355    1       94.804783238742      14.113074761481       0.000000000000
       356    1       98.131266861154      18.817433015308       0.000000000000
       357    1       96.468025049948      16.465253888395       0.000000000000
       358    1       98.962887766757      16.465253888395       1.440409661141
       359    2       95.636404144345      18.817433015308       1.440409661141
       360    1       97.299645955551      14.113074761481       1.440409661141
       361    1        0.000000000000      21.169612142222       0.000000000000
       362    1        3.326483622412      25.873970396049       0.000000000000
       363    1        1.663241811206      23.521791269135       0.000000000000
       364    1        4.158104528015      23.521791269135       1.440409661141
       365    1        0.831620905603      25.873970396049       1.440409661141